SnO2 GeomOpt ! Name of the system       
   1.00000000000000     
     3.186500    0.000000    0.000000
     0.000000    4.738000    0.000000
     0.000000    0.000000   40.000000
   Sn   O 
     9    18
Direct
  0.500000  0.512402  0.945000
  0.000000  0.999954  0.884194
  0.500000  0.500353  0.824108
  0.000000  0.999899  0.764032
  0.500000  0.500000  0.703875
  0.000000  0.000100  0.643718
  0.500000  0.499647  0.583642
  0.000000  0.000046  0.523556
  0.500000  0.487598  0.462750
  0.000000  0.640599  0.971468
  0.000000  0.275836  0.923721
  0.500000  0.790119  0.906153
  0.500000  0.200308  0.861616
  0.000000  0.700268  0.846743
  0.000000  0.302637  0.801143
  0.500000  0.803542  0.787082
  0.500000  0.196650  0.740959
  0.000000  0.695951  0.727033
  0.000000  0.304049  0.680717
  0.500000  0.803350  0.666791
  0.500000  0.196458  0.620668
  0.000000  0.697363  0.606607
  0.000000  0.299732  0.561007
  0.500000  0.799692  0.546134
  0.500000  0.209881  0.501597
  0.000000  0.724164  0.484030
  0.000000  0.359401  0.436282
 
   18   28  224
 0.53838031641E+01 0.54743267945E+01 0.50529364234E+01 0.47703973188E+01 0.49219289136E+01
 0.52116336861E+01 0.53900385226E+01 0.46836968814E+01 0.49957436710E+01 0.57845590019E+01
 0.49957437214E+01 0.46836971640E+01 0.53900380171E+01 0.52116339534E+01 0.49219298332E+01
 0.47703974725E+01 0.50529363409E+01 0.54743268871E+01 0.56320696080E+01 0.54328577694E+01
 0.61602720766E+01 0.50243231827E+01 0.42709982905E+01 0.55104356396E+01 0.49793868649E+01
 0.55964136663E+01 0.62472285072E+01 0.59191534733E+01 0.62472285266E+01 0.55964138883E+01
 0.49793864641E+01 0.55104367230E+01 0.42709995376E+01 0.50243220519E+01 0.61602731136E+01
 0.54328573759E+01 0.63851718040E+01 0.61603025768E+01 0.56106580522E+01 0.40278578770E+01
 0.58514264431E+01 0.56032808455E+01 0.50712171844E+01 0.59410883944E+01 0.47695159595E+01
 0.55637376353E+01 0.47695159577E+01 0.59410886950E+01 0.50712171113E+01 0.56032807544E+01
 0.58514271865E+01 0.40278590561E+01 0.56106573943E+01 0.61603023100E+01 0.55384306999E+01
 0.58714946365E+01 0.52098465516E+01 0.54013427229E+01 0.61273607031E+01 0.61841789111E+01
 0.47958370407E+01 0.58642696935E+01 0.64733352024E+01 0.50829983878E+01 0.64733352712E+01
 0.58642699000E+01 0.47958372428E+01 0.61841817345E+01 0.61273607328E+01 0.54013475716E+01
 0.52098483358E+01 0.58714943291E+01 0.44911648297E+01 0.44291044305E+01 0.59578424036E+01
 0.59793588516E+01 0.51756821532E+01 0.49988341450E+01 0.54789287516E+01 0.59921381800E+01
 0.49702308733E+01 0.49018512817E+01 0.49702309038E+01 0.59921383352E+01 0.54789288871E+01
 0.49988343667E+01 0.51756836281E+01 0.59793595216E+01 0.59578411447E+01 0.44291050997E+01
 0.56313464978E+01 0.64612613707E+01 0.51332542030E+01 0.42566782800E+01 0.52109576731E+01
 0.47986198698E+01 0.50529948712E+01 0.46848466320E+01 0.42046664542E+01 0.41812674291E+01
 0.42046665297E+01 0.46848467143E+01 0.50529949958E+01 0.47986200645E+01 0.52109577776E+01
 0.42566783961E+01 0.51332519138E+01 0.64612622091E+01 0.43590895892E+01 0.42582189472E+01
 0.58324853358E+01 0.50360165666E+01 0.43340624709E+01 0.47346341144E+01 0.44587162199E+01
 0.52924331587E+01 0.40751557011E+01 0.39016685842E+01 0.40751557634E+01 0.52924333226E+01
 0.44587164172E+01 0.47346343545E+01 0.43340626586E+01 0.50360147932E+01 0.58324878491E+01
 0.42582195826E+01 0.31210255490E+01 0.33431882622E+01 0.44159556786E+01 0.50196694939E+01
 0.45919002356E+01 0.43685728962E+01 0.41550678835E+01 0.45098234433E+01 0.48131125415E+01
 0.47015019822E+01 0.48131125814E+01 0.45098236489E+01 0.41550680371E+01 0.43685732195E+01
 0.45919005203E+01 0.50196694882E+01 0.44159563794E+01 0.33431891714E+01 0.38358433811E+01
 0.40603550792E+01 0.44969567416E+01 0.44993382596E+01 0.41100527674E+01 0.43401366980E+01
 0.40576554850E+01 0.38227892019E+01 0.43681953492E+01 0.44064406856E+01 0.43681954390E+01
 0.38227894374E+01 0.40576556783E+01 0.43401372543E+01 0.41100527680E+01 0.44993387626E+01
 0.44969583383E+01 0.40603553415E+01 0.42375428670E+01 0.40768728632E+01 0.42757504379E+01
 0.39156042527E+01 0.39860011877E+01 0.40214638634E+01 0.38966872789E+01 0.40275978759E+01
 0.34281692272E+01 0.36199953249E+01 0.34281693592E+01 0.40275981378E+01 0.38966876075E+01
 0.40214642019E+01 0.39860016742E+01 0.39156040624E+01 0.42757499525E+01 0.40768731662E+01
 0.40908844168E+01 0.40587484953E+01 0.38372841870E+01 0.35556295370E+01 0.36454039023E+01
 0.38102440599E+01 0.36215099951E+01 0.40254907886E+01 0.43799423805E+01 0.41970656395E+01
 0.43799425371E+01 0.40254911237E+01 0.36215105003E+01 0.38102445364E+01 0.36454043576E+01
 0.35556309122E+01 0.38372844359E+01 0.40587485003E+01 0.31433494315E+01 0.31008388530E+01
 0.30284862429E+01 0.35233738034E+01 0.34046420789E+01 0.33681787040E+01 0.38282422674E+01
 0.30957673266E+01 0.27614335959E+01 0.31210130983E+01 0.27614338122E+01 0.30957677405E+01
 0.38282428427E+01 0.33681792465E+01 0.34046430163E+01 0.35233738419E+01 0.30284866502E+01
 0.31008389606E+01 0.29223182318E+01 0.28607030752E+01 0.30761100281E+01 0.28961755074E+01
 0.30387013078E+01 0.33824284299E+01 0.30532088434E+01 0.31278763367E+01 0.36727665618E+01
 0.38783680425E+01 0.36727668332E+01 0.31278768556E+01 0.30532095782E+01 0.33824294240E+01
 0.30387022157E+01 0.28961767856E+01 0.30761105540E+01 0.28607035206E+01 0.22830080284E+01
 0.22242152609E+01 0.24758493757E+01 0.25918286973E+01 0.27060245433E+01 0.31430845697E+01
 0.29563106818E+01 0.30058102054E+01 0.33679635994E+01 0.34494770322E+01 0.33679639349E+01
 0.30058108518E+01 0.29563115762E+01 0.31430855205E+01 0.27060258418E+01 0.25918293311E+01
 0.24758502800E+01 0.22242157887E+01 0.18096493439E+01 0.18564738097E+01 0.19258736073E+01
 0.21468872420E+01 0.25084312020E+01 0.27496202408E+01 0.27143805964E+01 0.33195446820E+01
 0.38726449087E+01 0.38389752131E+01 0.38726453012E+01 0.33195454455E+01 0.27143816851E+01
 0.27496216995E+01 0.25084324508E+01 0.21468888344E+01 0.19258745426E+01 0.18564742411E+01
 0.75971614169E+00 0.87153314799E+00 0.15269722552E+01 0.17837610656E+01 0.22012419584E+01
 0.25392785512E+01 0.27315212306E+01 0.33055028190E+01 0.35435298483E+01 0.38269999379E+01
 0.35435303088E+01 0.33055037071E+01 0.27315224976E+01 0.25392799507E+01 0.22012437973E+01
 0.17837621824E+01 0.15269735824E+01 0.87153318072E+00 0.26259328764E+00 0.35825061781E+00
 0.67292196567E+00 0.15012083304E+01 0.19553205614E+01 0.26196988466E+01 0.27052651234E+01
 0.27649748023E+01 0.39733220142E+01 0.42709341076E+01 0.39733225214E+01 0.27649757884E+01
 0.27052665437E+01 0.26197007776E+01 0.19553223023E+01 0.15012102599E+01 0.67292392394E+00
 0.35825139507E+00 0.33849924791E+00 0.40152852878E-01 0.34043232164E+00 0.10697252058E+01
 0.19370236359E+01 0.24041315233E+01 0.29029301060E+01 0.31405926501E+01 0.31552129520E+01
 0.35647970321E+01 0.31552134803E+01 0.31405937249E+01 0.29029316082E+01 0.24041332897E+01
 0.19370258382E+01 0.10697285836E+01 0.34043396397E+00 0.40154283559E-01 0.13776783045E+00
 0.49882574826E+00 0.23343987885E+00 0.93551661967E+00 0.19737274556E+01 0.23239668106E+01
 0.31404707927E+01 0.32868499605E+01 0.36931594188E+01 0.40670449630E+01 0.36931599467E+01
 0.32868510364E+01 0.31404723626E+01 0.23239688805E+01 0.19737294098E+01 0.93551741174E+00
 0.23344154334E+00 0.49882670887E+00 0.49373923195E+00 0.46056865725E+00 0.45200394428E+00
 0.12497315104E+01 0.21280586382E+01 0.25295413108E+01 0.31682814024E+01 0.35409648764E+01
 0.40949412423E+01 0.45149566750E+01 0.40949417536E+01 0.35409659355E+01 0.31682828895E+01
 0.25295429675E+01 0.21280610862E+01 0.12497341249E+01 0.45200572271E+00 0.46056909740E+00
 0.42897603355E+00 0.58567398005E+00 0.96541560430E+00 0.18682729426E+01 0.24853822578E+01
 0.29916857416E+01 0.32679944977E+01 0.39891206680E+01 0.47842106672E+01 0.45875678099E+01
 0.47842111711E+01 0.39891216335E+01 0.32679959184E+01 0.29916876101E+01 0.24853841105E+01
 0.18682751674E+01 0.96541727406E+00 0.58567463829E+00 0.12775827650E+01 0.14471395325E+01
 0.21395180999E+01 0.23456915380E+01 0.29090529013E+01 0.32429843014E+01 0.37966224970E+01
 0.45143242042E+01 0.44889636907E+01 0.48726437433E+01 0.44889641314E+01 0.45143250722E+01
 0.37966237539E+01 0.32429856457E+01 0.29090544947E+01 0.23456928637E+01 0.21395194095E+01
 0.14471405003E+01 0.24243936695E+01 0.24851645685E+01 0.24336035061E+01 0.29483796348E+01
 0.33735807145E+01 0.37107383699E+01 0.41228910014E+01 0.45833666221E+01 0.47284492543E+01
 0.43577348207E+01 0.47284496445E+01 0.45833673682E+01 0.41228920576E+01 0.37107398424E+01
 0.33735819949E+01 0.29483812948E+01 0.24336043467E+01 0.24851650228E+01 0.30570917182E+01
 0.30067078987E+01 0.32978461020E+01 0.34995661188E+01 0.37781189212E+01 0.40428801491E+01
 0.43815262158E+01 0.48530633274E+01 0.45239865917E+01 0.42439028320E+01 0.45239869094E+01
 0.48530639513E+01 0.43815270804E+01 0.40428809811E+01 0.37781200726E+01 0.34995668289E+01
 0.32978470511E+01 0.30067083215E+01 0.36174110783E+01 0.37471615067E+01 0.38658136018E+01
 0.40152278315E+01 0.42081355864E+01 0.43615327314E+01 0.42997203440E+01 0.49246282080E+01
 0.51426121498E+01 0.45903408972E+01 0.51426124141E+01 0.49246286957E+01 0.42997210240E+01
 0.43615337862E+01 0.42081367664E+01 0.40152289032E+01 0.38658140573E+01 0.37471618912E+01
 0.39012272288E+01 0.38181467486E+01 0.42323927046E+01 0.44541179419E+01 0.44864605095E+01
 0.45761955864E+01 0.47409630608E+01 0.49712663218E+01 0.58738376826E+01 0.67094825560E+01
 0.58738378709E+01 0.49712667194E+01 0.47409636488E+01 0.45761960853E+01 0.44864608288E+01
 0.44541186098E+01 0.42323935040E+01 0.38181470087E+01 0.45797708856E+01 0.47187813833E+01
 0.41859986696E+01 0.43602531319E+01 0.48881133288E+01 0.48415933694E+01 0.48591052076E+01
 0.47049275426E+01 0.50988952577E+01 0.54281498453E+01 0.50988954390E+01 0.47049278134E+01
 0.48591056582E+01 0.48415942607E+01 0.48881136424E+01 0.43602541688E+01 0.41859986473E+01
 0.47187816475E+01 0.49098871816E+01 0.47639413984E+01 0.51033388266E+01 0.46294969310E+01
 0.46542553055E+01 0.50067550333E+01 0.48759078037E+01 0.56646668281E+01 0.55524780676E+01
 0.52571049328E+01 0.55524781528E+01 0.56646671951E+01 0.48759078350E+01 0.50067547150E+01
 0.46542565554E+01 0.46294966911E+01 0.51033395834E+01 0.47639413951E+01 0.42094144394E+01
 0.44166318869E+01 0.51965850703E+01 0.53213434385E+01 0.54376976236E+01 0.52572047030E+01
 0.51277350411E+01 0.58683724857E+01 0.58411158287E+01 0.55692725103E+01 0.58411159526E+01
 0.58683725421E+01 0.51277359213E+01 0.52572049721E+01 0.54376984373E+01 0.53213444679E+01
 0.51965855478E+01 0.44166322821E+01 0.49045670659E+01 0.48738157600E+01 0.41526635520E+01
 0.56993449957E+01 0.61145221070E+01 0.49975094040E+01 0.55419572056E+01 0.57424396128E+01
 0.61595211058E+01 0.58193120952E+01 0.61595212785E+01 0.57424395908E+01 0.55419580304E+01
 0.49975076817E+01 0.61145207224E+01 0.56993462494E+01 0.41526624201E+01 0.48738160488E+01
 0.33462768546E+01 0.36748332513E+01 0.56952970787E+01 0.70640065666E+01 0.52627865118E+01
 0.58801116041E+01 0.63184561425E+01 0.57489158201E+01 0.67088390701E+01 0.63400116990E+01
 0.67088391846E+01 0.57489158286E+01 0.63184566408E+01 0.58801120888E+01 0.52627861228E+01
 0.70640063970E+01 0.56952978351E+01 0.36748346616E+01 0.64154610041E+01 0.67058864532E+01
 0.66004055494E+01 0.61898639999E+01 0.60326987109E+01 0.55721477709E+01 0.64421466766E+01
 0.57738059409E+01 0.35991873276E+01 0.36022547891E+01 0.35991872541E+01 0.57738062780E+01
 0.64421460688E+01 0.55721466532E+01 0.60327038545E+01 0.61898607350E+01 0.66004061969E+01
 0.67058871779E+01 0.65545305047E+01 0.64583244728E+01 0.52003954847E+01 0.56527227596E+01
 0.57438817446E+01 0.58517547645E+01 0.55296703769E+01 0.44995185981E+01 0.57008556657E+01
 0.59907630197E+01 0.57008557141E+01 0.44995186615E+01 0.55296706243E+01 0.58517547099E+01
 0.57438804819E+01 0.56527215032E+01 0.52003963860E+01 0.64583243647E+01 0.35806147386E+01
 0.27587922593E+01 0.50395116957E+01 0.58621509724E+01 0.49345906458E+01 0.53747347025E+01
 0.52553290430E+01 0.51135317105E+01 0.49597221894E+01 0.57130761751E+01 0.49597221989E+01
 0.51135318729E+01 0.52553290652E+01 0.53747351072E+01 0.49345909706E+01 0.58621524508E+01
 0.50395140977E+01 0.27587906367E+01 0.55997678976E+01 0.56392983284E+01 0.33559699765E+01
 0.46029768179E+01 0.55065947827E+01 0.46074490255E+01 0.50573199367E+01 0.45852490176E+01
 0.52969354374E+01 0.54080142288E+01 0.52969355420E+01 0.45852490682E+01 0.50573201925E+01
 0.46074489003E+01 0.55065950647E+01 0.46029783812E+01 0.33559686261E+01 0.56392982340E+01
 0.51127154912E+01 0.55568940966E+01 0.50591766102E+01 0.44315157909E+01 0.45908460060E+01
 0.48178096293E+01 0.51003946274E+01 0.45581617987E+01 0.46500365326E+01 0.48763382377E+01
 0.46500365845E+01 0.45581619227E+01 0.51003948831E+01 0.48178098196E+01 0.45908462272E+01
 0.44315154921E+01 0.50591757838E+01 0.55568948184E+01 0.63663970561E+01 0.57437324995E+01
 0.44496604750E+01 0.43657095000E+01 0.48263614890E+01 0.44667491912E+01 0.46073263777E+01
 0.48793988195E+01 0.45699000662E+01 0.41981540165E+01 0.45699001593E+01 0.48793989560E+01
 0.46073266404E+01 0.44667492768E+01 0.48263618397E+01 0.43657101081E+01 0.44496589510E+01
 0.57437312717E+01 0.39558523315E+01 0.40848565855E+01 0.41398249500E+01 0.45605449518E+01
 0.44645138565E+01 0.44381278271E+01 0.46479291780E+01 0.43695369965E+01 0.48637237414E+01
 0.51419222096E+01 0.48637238765E+01 0.43695371532E+01 0.46479295236E+01 0.44381281542E+01
 0.44645142654E+01 0.45605457126E+01 0.41398261375E+01 0.40848566772E+01 0.39452709580E+01
 0.39928362757E+01 0.40889071356E+01 0.43904572129E+01 0.43620531481E+01 0.41534824297E+01
 0.44104865981E+01 0.41415320125E+01 0.37126900738E+01 0.36889929468E+01 0.37126902008E+01
 0.41415323278E+01 0.44104868045E+01 0.41534829894E+01 0.43620535318E+01 0.43904566438E+01
 0.40889075608E+01 0.39928365425E+01 0.40010285726E+01 0.41637866280E+01 0.44201838010E+01
 0.39140985404E+01 0.40340208786E+01 0.42834045688E+01 0.37781167461E+01 0.47974417193E+01
 0.51201116258E+01 0.47347677710E+01 0.51201118058E+01 0.47974420124E+01 0.37781172278E+01
 0.42834051630E+01 0.40340212100E+01 0.39140996593E+01 0.44201841155E+01 0.41637872243E+01
 0.37268692121E+01 0.37944481570E+01 0.35642680421E+01 0.39094138536E+01 0.40493009864E+01
 0.36281451827E+01 0.43661541399E+01 0.43648129106E+01 0.41302271362E+01 0.41861866628E+01
 0.41302273317E+01 0.43648133162E+01 0.43661546392E+01 0.36281457266E+01 0.40493016205E+01
 0.39094139829E+01 0.35642687423E+01 0.37944481420E+01 0.32288477909E+01 0.34212926137E+01
 0.33922033329E+01 0.35997719668E+01 0.37636773683E+01 0.35961868352E+01 0.41053098085E+01
 0.45366031200E+01 0.41034734926E+01 0.38043123221E+01 0.41034737436E+01 0.45366035707E+01
 0.41053105072E+01 0.35961877001E+01 0.37636780179E+01 0.35997731721E+01 0.33922037323E+01
 0.34212929825E+01 0.28093879815E+01 0.30246095572E+01 0.30691089284E+01 0.33941071795E+01
 0.33833913069E+01 0.36942365075E+01 0.40912418541E+01 0.41069647480E+01 0.36958387875E+01
 0.29945870668E+01 0.36958390720E+01 0.41069653245E+01 0.40912425943E+01 0.36942373423E+01
 0.33833924829E+01 0.33941078381E+01 0.30691098474E+01 0.30246100122E+01 0.28852462177E+01
 0.29706856754E+01 0.26102480035E+01 0.31128001365E+01 0.32387291980E+01 0.36019055863E+01
 0.40024662640E+01 0.40501936701E+01 0.41705473918E+01 0.35258437288E+01 0.41705477243E+01
 0.40501942936E+01 0.40024672000E+01 0.36019067704E+01 0.32387301528E+01 0.31128017100E+01
 0.26102487317E+01 0.29706869805E+01 0.25524877572E+01 0.27263986103E+01 0.29570748918E+01
 0.27766927667E+01 0.32188496045E+01 0.32455746905E+01 0.39425763881E+01 0.46902458288E+01
 0.39402786843E+01 0.38620553963E+01 0.39402790410E+01 0.46902465480E+01 0.39425773478E+01
 0.32455757617E+01 0.32188511437E+01 0.27766939871E+01 0.29570753039E+01 0.27263991445E+01
 0.17275259887E+01 0.23503508097E+01 0.28054494930E+01 0.30014515118E+01 0.30377275965E+01
 0.34667928650E+01 0.37958920863E+01 0.42451067981E+01 0.51368459654E+01 0.51746528345E+01
 0.51368463643E+01 0.42451075221E+01 0.37958931976E+01 0.34667942446E+01 0.30377287586E+01
 0.30014511097E+01 0.28054504856E+01 0.23503509609E+01 0.18080457130E+01 0.17187575890E+01
 0.29153583912E+01 0.31182719595E+01 0.31215518249E+01 0.37977128417E+01 0.36776952354E+01
 0.42618611106E+01 0.49390160662E+01 0.52717933616E+01 0.49390164751E+01 0.42618618877E+01
 0.36776962492E+01 0.37977140928E+01 0.31215534973E+01 0.31182748118E+01 0.29153595541E+01
 0.17187581524E+01 0.18727317831E+01 0.22142522460E+01 0.30141933828E+01 0.32576134992E+01
 0.32335281941E+01 0.39154124862E+01 0.40464044500E+01 0.44711123920E+01 0.46878898416E+01
 0.44364253081E+01 0.46878902508E+01 0.44711131315E+01 0.40464055487E+01 0.39154139685E+01
 0.32335290084E+01 0.32576138912E+01 0.30141942401E+01 0.22142534722E+01 0.29386779775E+01
 0.30483446034E+01 0.33854669572E+01 0.31516708328E+01 0.35424874499E+01 0.38651493080E+01
 0.44644148260E+01 0.42202914405E+01 0.41614335574E+01 0.54500961496E+01 0.41614339116E+01
 0.42202921546E+01 0.44644157373E+01 0.38651504142E+01 0.35424888737E+01 0.31516716589E+01
 0.33854676845E+01 0.30483453034E+01 0.34331092063E+01 0.32428493217E+01 0.30788624476E+01
 0.35700467158E+01 0.38302529511E+01 0.41536675650E+01 0.43991607530E+01 0.39587097902E+01
 0.50776882922E+01 0.57834783647E+01 0.50776886399E+01 0.39587104034E+01 0.43991616561E+01
 0.41536687349E+01 0.38302539994E+01 0.35700479086E+01 0.30788632040E+01 0.32428494511E+01
 0.32309408852E+01 0.34312460508E+01 0.39190171609E+01 0.38869287363E+01 0.41035597681E+01
 0.43996664351E+01 0.44253777906E+01 0.44044606887E+01 0.50839479832E+01 0.59103860108E+01
 0.50839482387E+01 0.44044612449E+01 0.44253784902E+01 0.43996672080E+01 0.41035609633E+01
 0.38869293257E+01 0.39190180599E+01 0.34312465515E+01 0.40433363353E+01 0.40513022597E+01
 0.40675352362E+01 0.42548031486E+01 0.44267694024E+01 0.45236191089E+01 0.46806812695E+01
 0.45015280982E+01 0.55748889039E+01 0.63858880107E+01 0.55748891524E+01 0.45015285432E+01
 0.46806819601E+01 0.45236200022E+01 0.44267699675E+01 0.42548040707E+01 0.40675356196E+01
 0.40513025834E+01 0.41759874461E+01 0.42879443534E+01 0.43095596924E+01 0.44692738317E+01
 0.46006246073E+01 0.48100109301E+01 0.51109628265E+01 0.49327663235E+01 0.54739519814E+01
 0.61915339764E+01 0.54739521658E+01 0.49327667018E+01 0.51109633102E+01 0.48100113704E+01
 0.46006250615E+01 0.44692742940E+01 0.43095603146E+01 0.42879445484E+01 0.51573751025E+01
 0.51491779599E+01 0.46587703441E+01 0.46429145801E+01 0.47547106200E+01 0.48821757643E+01
 0.50835956978E+01 0.51726259274E+01 0.48529816076E+01 0.43722731517E+01 0.48529817703E+01
 0.51726262581E+01 0.50835961128E+01 0.48821763207E+01 0.47547112706E+01 0.46429147578E+01
 0.46587702643E+01 0.51491780521E+01 0.45258823535E+01 0.45948601767E+01 0.53838133885E+01
 0.51334288312E+01 0.47940003793E+01 0.50846000224E+01 0.52820873927E+01 0.56159134740E+01
 0.56623514137E+01 0.58275975026E+01 0.56623515249E+01 0.56159137385E+01 0.52820875973E+01
 0.50846000640E+01 0.47940013915E+01 0.51334287393E+01 0.53838140608E+01 0.45948603205E+01
 0.51239662253E+01 0.51071542835E+01 0.45943688466E+01 0.53729845098E+01 0.53835418556E+01
 0.51073062369E+01 0.55033145336E+01 0.49218712408E+01 0.55682932855E+01 0.60417934547E+01
 0.55682934272E+01 0.49218712947E+01 0.55033152467E+01 0.51073071865E+01 0.53835409355E+01
 0.53729848899E+01 0.45943685206E+01 0.51071543641E+01 0.62810065522E+01 0.62009582437E+01
 0.54300203221E+01 0.54302725286E+01 0.54709149222E+01 0.55616211693E+01 0.58703970945E+01
 0.50855257705E+01 0.54880610684E+01 0.58867987262E+01 0.54880610396E+01 0.50855260471E+01
 0.58703961592E+01 0.55616221185E+01 0.54709148062E+01 0.54302725378E+01 0.54300189242E+01
 0.62009581959E+01 0.59849119392E+01 0.58720195565E+01 0.65320377128E+01 0.52897599259E+01
 0.46351817085E+01 0.61647399164E+01 0.53882711633E+01 0.56438315209E+01 0.64314834121E+01
 0.60046720144E+01 0.64314834146E+01 0.56438315676E+01 0.53882706765E+01 0.61647419589E+01
 0.46351823947E+01 0.52897576683E+01 0.65320385960E+01 0.58720195136E+01 0.62645537254E+01
 0.58759959037E+01 0.61187566940E+01 0.36165347115E+01 0.61198141943E+01 0.60478304149E+01
 0.54474561203E+01 0.64476903527E+01 0.43615646180E+01 0.61232501356E+01 0.43615645866E+01
 0.64476908142E+01 0.54474560166E+01 0.60478301029E+01 0.61198141932E+01 0.36165342940E+01
 0.61187542648E+01 0.58759958629E+01 0.46620063112E+01 0.48437223853E+01 0.41834956725E+01
 0.64339389093E+01 0.60908076739E+01 0.59343180533E+01 0.54182543093E+01 0.53309042755E+01
 0.67878143498E+01 0.54916452651E+01 0.67878138230E+01 0.53309052849E+01 0.54182527155E+01
 0.59343250594E+01 0.60908044064E+01 0.64339380936E+01 0.41834984917E+01 0.48437220933E+01
 0.45947050642E+01 0.39061296410E+01 0.61652941312E+01 0.63045293741E+01 0.52910563375E+01
 0.56074764342E+01 0.57422125278E+01 0.65096108992E+01 0.53956180166E+01 0.46558028183E+01
 0.53956180543E+01 0.65096110441E+01 0.57422126684E+01 0.56074767976E+01 0.52910586267E+01
 0.63045289827E+01 0.61652920667E+01 0.39061304942E+01 0.57614768065E+01 0.61601020223E+01
 0.51544785034E+01 0.41922804474E+01 0.60990162025E+01 0.51296065208E+01 0.59810720824E+01
 0.60567323942E+01 0.46648885883E+01 0.53334408736E+01 0.46648886267E+01 0.60567324784E+01
 0.59810720261E+01 0.51296067174E+01 0.60990154960E+01 0.41922807952E+01 0.51544766263E+01
 0.61601021462E+01 0.52014575421E+01 0.51803552321E+01 0.61762669164E+01 0.59288794604E+01
 0.49664468018E+01 0.52510859242E+01 0.53441737357E+01 0.53442740038E+01 0.38965442179E+01
 0.41598953386E+01 0.38965442015E+01 0.53442741674E+01 0.53441738203E+01 0.52510862139E+01
 0.49664471565E+01 0.59288781806E+01 0.61762705537E+01 0.51803553505E+01 0.36514302966E+01
 0.35633778348E+01 0.53595807287E+01 0.57714398929E+01 0.51995431731E+01 0.51667911811E+01
 0.46848395981E+01 0.55757964219E+01 0.56131405728E+01 0.56351951568E+01 0.56131405688E+01
 0.55757966164E+01 0.46848397612E+01 0.51667912475E+01 0.51995433531E+01 0.57714382209E+01
 0.53595809228E+01 0.35633781913E+01 0.32692200141E+01 0.39201272213E+01 0.49842616468E+01
 0.51436400672E+01 0.46812381757E+01 0.51486057884E+01 0.48524261196E+01 0.46044427956E+01
 0.51735415116E+01 0.51425767681E+01 0.51735415528E+01 0.46044429584E+01 0.48524260677E+01
 0.51486065385E+01 0.46812377988E+01 0.51436394834E+01 0.49842643215E+01 0.39201281776E+01
 0.49075488778E+01 0.50148766359E+01 0.53545487817E+01 0.47392098970E+01 0.48349430616E+01
 0.49630782802E+01 0.45974692956E+01 0.50256416650E+01 0.46694501247E+01 0.46344889161E+01
 0.46694502335E+01 0.50256417928E+01 0.45974695154E+01 0.49630783231E+01 0.48349433015E+01
 0.47392101464E+01 0.53545469360E+01 0.50148770588E+01 0.53015946657E+01 0.52485828940E+01
 0.45006385894E+01 0.45010441518E+01 0.46559376174E+01 0.48416941980E+01 0.47779159962E+01
 0.48518973139E+01 0.54388603017E+01 0.52825900056E+01 0.54388602651E+01 0.48518976814E+01
 0.47779161630E+01 0.48416946520E+01 0.46559376887E+01 0.45010456770E+01 0.45006390198E+01
 0.52485826590E+01 0.42161519346E+01 0.39895808973E+01 0.41027185622E+01 0.46812750861E+01
 0.45990614125E+01 0.44908540972E+01 0.50104817723E+01 0.40629621925E+01 0.35312148743E+01
 0.41435536689E+01 0.35312150046E+01 0.40629624289E+01 0.50104821446E+01 0.44908541867E+01
 0.45990621041E+01 0.46812748297E+01 0.41027186632E+01 0.39895806690E+01 0.45427207467E+01
 0.44519762623E+01 0.45348822062E+01 0.42735805708E+01 0.42521513385E+01 0.47841547074E+01
 0.42372811765E+01 0.46372758225E+01 0.53662475792E+01 0.49994760128E+01 0.53662477196E+01
 0.46372761196E+01 0.42372815220E+01 0.47841554732E+01 0.42521517347E+01 0.42735813882E+01
 0.45348825069E+01 0.44519765884E+01 0.41353687626E+01 0.39609870459E+01 0.43377194442E+01
 0.42459459613E+01 0.41724254041E+01 0.46857564659E+01 0.43746999854E+01 0.40770196915E+01
 0.41755547362E+01 0.45468162441E+01 0.41755549333E+01 0.40770200218E+01 0.43747005154E+01
 0.46857567190E+01 0.41724262671E+01 0.42459461125E+01 0.43377198061E+01 0.39609873508E+01
 0.42307847122E+01 0.41801459211E+01 0.40047485971E+01 0.41120888419E+01 0.43041023115E+01
 0.43941020762E+01 0.39642968549E+01 0.49707169344E+01 0.53218223669E+01 0.47668932991E+01
 0.53218225563E+01 0.49707173501E+01 0.39642973506E+01 0.43941030430E+01 0.43041026740E+01
 0.41120895908E+01 0.40047490429E+01 0.41801459361E+01 0.31794648226E+01 0.34087853730E+01
 0.41289685452E+01 0.40818898882E+01 0.40699517387E+01 0.44621107183E+01 0.39577578711E+01
 0.48057553738E+01 0.51206159881E+01 0.48930218379E+01 0.51206162465E+01 0.48057558041E+01
 0.39577585592E+01 0.44621111288E+01 0.40699528188E+01 0.40818901889E+01 0.41289690159E+01
 0.34087848830E+01 0.34164757777E+01 0.32314803676E+01 0.32427790301E+01 0.40107018880E+01
 0.41564218793E+01 0.45025800006E+01 0.43069243960E+01 0.37774481098E+01 0.53990922283E+01
 0.63114781087E+01 0.53990924655E+01 0.37774486259E+01 0.43069250108E+01 0.45025811917E+01
 0.41564223473E+01 0.40107024894E+01 0.32427805428E+01 0.32314804975E+01 0.40634618032E+01
 0.33824262893E+01 0.32994723353E+01 0.35509654447E+01 0.41954084954E+01 0.43681773227E+01
 0.44861564902E+01 0.45189199145E+01 0.41011447930E+01 0.42736094160E+01 0.41011450793E+01
 0.45189204160E+01 0.44861572819E+01 0.43681778322E+01 0.41954097832E+01 0.35509685972E+01
 0.32994727930E+01 0.33824271833E+01 0.39525660278E+01 0.42122779349E+01 0.31136475148E+01
 0.34892305253E+01 0.42768393442E+01 0.39527620746E+01 0.47841878354E+01 0.47006735189E+01
 0.48507467776E+01 0.51024255905E+01 0.48507470212E+01 0.47006740442E+01 0.47841885631E+01
 0.39527632013E+01 0.42768399725E+01 0.34892294369E+01 0.31136482342E+01 0.42122781575E+01
 0.42753013568E+01 0.39592685431E+01 0.33306156337E+01 0.35635801475E+01 0.43329747613E+01
 0.41809249948E+01 0.45653087324E+01 0.45725485478E+01 0.47961259134E+01 0.55871268733E+01
 0.47961261570E+01 0.45725490651E+01 0.45653095170E+01 0.41809253650E+01 0.43329764051E+01
 0.35635824083E+01 0.33306162216E+01 0.39592681798E+01 0.33580064233E+01 0.33534277687E+01
 0.33342152836E+01 0.42245575375E+01 0.44345336366E+01 0.45393050624E+01 0.43365082180E+01
 0.50693124884E+01 0.62150739977E+01 0.56198568795E+01 0.62150741998E+01 0.50693130182E+01
 0.43365088447E+01 0.45393061972E+01 0.44345342492E+01 0.42245585860E+01 0.33342162869E+01
 0.33534277163E+01 0.37267011487E+01 0.39697281827E+01 0.44741992633E+01 0.42797578040E+01
 0.45043758360E+01 0.46326879942E+01 0.47382583067E+01 0.57225376935E+01 0.53683540263E+01
 0.48858374421E+01 0.53683542725E+01 0.57225381134E+01 0.47382590192E+01 0.46326883478E+01
 0.45043767088E+01 0.42797585483E+01 0.44741996990E+01 0.39697290047E+01 0.44266767143E+01
 0.44515678314E+01 0.41340383609E+01 0.46373567044E+01 0.47121695826E+01 0.47388450545E+01
 0.50276732634E+01 0.56284074905E+01 0.56253626947E+01 0.46872386714E+01 0.56253628830E+01
 0.56284079029E+01 0.50276737439E+01 0.47388460843E+01 0.47121699719E+01 0.46373574449E+01
 0.41340387212E+01 0.44515678158E+01 0.46657049827E+01 0.47314629384E+01 0.46003366698E+01
 0.47392593274E+01 0.47246409349E+01 0.50417717238E+01 0.50659888623E+01 0.55829964409E+01
 0.51941895798E+01 0.39376582941E+01 0.51941897826E+01 0.55829967612E+01 0.50659893870E+01
 0.50417718501E+01 0.47246416959E+01 0.47392598204E+01 0.46003370880E+01 0.47314632158E+01
 0.47162734318E+01 0.47118253852E+01 0.50286484653E+01 0.50057454053E+01 0.50385593799E+01
 0.50655052465E+01 0.48605868209E+01 0.54757569468E+01 0.57744115821E+01 0.55938152094E+01
 0.57744117021E+01 0.54757572258E+01 0.48605870992E+01 0.50655061490E+01 0.50385601509E+01
 0.50057457073E+01 0.50286487252E+01 0.47118255035E+01 0.46297759139E+01 0.45692074800E+01
 0.50309519780E+01 0.51520040308E+01 0.51682190835E+01 0.52768476046E+01 0.53822805975E+01
 0.54995981298E+01 0.65356404557E+01 0.73929621890E+01 0.65356405932E+01 0.54995983362E+01
 0.53822810807E+01 0.52768475741E+01 0.51682191615E+01 0.51520049098E+01 0.50309525408E+01
 0.45692078824E+01 0.47305426134E+01 0.49840109966E+01 0.45722364844E+01 0.50773885701E+01
 0.55423874158E+01 0.54646568299E+01 0.52874921710E+01 0.50717479392E+01 0.55512778112E+01
 0.54664538231E+01 0.55512779145E+01 0.50717480836E+01 0.52874923331E+01 0.54646579038E+01
 0.55423869716E+01 0.50773891366E+01 0.45722365123E+01 0.49840111205E+01 0.60051139691E+01
 0.58272162674E+01 0.56287339636E+01 0.51158629502E+01 0.51668466574E+01 0.54330417675E+01
 0.53128072277E+01 0.60565788262E+01 0.60571907670E+01 0.56203551751E+01 0.60571908230E+01
 0.60565791088E+01 0.53128071946E+01 0.54330410761E+01 0.51668484124E+01 0.51158628799E+01
 0.56287348735E+01 0.58272161442E+01 0.47368340834E+01 0.47683000157E+01 0.54057708768E+01
 0.59655079967E+01 0.58159081063E+01 0.57240182360E+01 0.56348943077E+01 0.59450822044E+01
 0.61841313212E+01 0.57584496418E+01 0.61841313164E+01 0.59450823403E+01 0.56348947997E+01
 0.57240178159E+01 0.58159097934E+01 0.59655091004E+01 0.54057721212E+01 0.47683001222E+01
 0.49180708239E+01 0.45471939144E+01 0.51786981017E+01 0.60904328377E+01 0.65391925817E+01
 0.55052542751E+01 0.58370022752E+01 0.66527775965E+01 0.64374172353E+01 0.63513058659E+01
 0.64374173984E+01 0.66527777002E+01 0.58370028853E+01 0.55052489039E+01 0.65391897826E+01
 0.60904342935E+01 0.51787013310E+01 0.45471940287E+01 0.48591647667E+01 0.50137198450E+01
 0.59225906907E+01 0.66511547168E+01 0.55906266528E+01 0.62159865215E+01 0.63784335738E+01
 0.59876438060E+01 0.65314715547E+01 0.57775848660E+01 0.65314716856E+01 0.59876436830E+01
 0.63784344134E+01 0.62159864332E+01 0.55906217959E+01 0.66511531793E+01 0.59225909342E+01
 0.50137201874E+01 0.60376139986E+01 0.61845560804E+01 0.63536512275E+01 0.61132175781E+01
 0.59117723885E+01 0.59554635696E+01 0.62923940295E+01 0.59646981958E+01 0.51156423171E+01
 0.52362393709E+01 0.51156422887E+01 0.59646984352E+01 0.62923935132E+01 0.59554627841E+01
 0.59117822358E+01 0.61132162004E+01 0.63536500149E+01 0.61845562601E+01 0.63766982946E+01