 vasp.5.4.1 24Jun15 (build Nov 25 2015 16:01:35) complex

 executed on         CrayXC-Intel date 2017.08.02  19:45:30
 running on   96 total cores
 distrk:  each k-point on   24 cores,    4 groups
 distr:  one band on NCORES_PER_BAND=  24 cores,    1 groups


--------------------------------------------------------------------------------------------------------


 INCAR:
 POTCAR:    PAW_PBE Mo_sv 02Feb2006
 POTCAR:    PAW_PBE O 08Apr2002

 -----------------------------------------------------------------------------
|                                                                             |
|           W    W    AA    RRRRR   N    N  II  N    N   GGGG   !!!           |
|           W    W   A  A   R    R  NN   N  II  NN   N  G    G  !!!           |
|           W    W  A    A  R    R  N N  N  II  N N  N  G       !!!           |
|           W WW W  AAAAAA  RRRRR   N  N N  II  N  N N  G  GGG   !            |
|           WW  WW  A    A  R   R   N   NN  II  N   NN  G    G                |
|           W    W  A    A  R    R  N    N  II  N    N   GGGG   !!!           |
|                                                                             |
|      For optimal performance we recommend to set                            |
|        NCORE= 4 - approx SQRT( number of cores)                             |
|      NCORE specifies how many cores store one orbital (NPAR=cpu/NCORE).     |
|      This setting can  greatly improve the performance of VASP for DFT.     |
|      The default, NPAR=number of cores might be grossly inefficient         |
|      on modern multi-core architectures or massively parallel machines.     |
|      Do your own testing !!!!                                               |
|      Unfortunately you need to use the default for GW and RPA calculations. |
|      (for HF NCORE is supported but not extensively tested yet)             |
|                                                                             |
 -----------------------------------------------------------------------------


 -----------------------------------------------------------------------------
|                                                                             |
|           W    W    AA    RRRRR   N    N  II  N    N   GGGG   !!!           |
|           W    W   A  A   R    R  NN   N  II  NN   N  G    G  !!!           |
|           W    W  A    A  R    R  N N  N  II  N N  N  G       !!!           |
|           W WW W  AAAAAA  RRRRR   N  N N  II  N  N N  G  GGG   !            |
|           WW  WW  A    A  R   R   N   NN  II  N   NN  G    G                |
|           W    W  A    A  R    R  N    N  II  N    N   GGGG   !!!           |
|                                                                             |
|      You have enabled k-point parallelism (KPAR>1).                         |
|      This developmental code was originally  written by Paul Kent at ORNL,  |
|      and carefully double checked in Vienna.                                |
|      GW as well as linear response parallelism added by Martijn Marsman     |
|      and Georg Kresse.                                                      |
|      Carefully verify results versus KPAR=1.                                |
|      Report problems to Paul Kent and Vienna.                               |
|                                                                             |
 -----------------------------------------------------------------------------

 POTCAR:    PAW_PBE Mo_sv 02Feb2006
   VRHFIN =Mo: 4p5s4d
   LEXCH  = PE
   EATOM  =  1862.2866 eV,  136.8742 Ry

   TITEL  = PAW_PBE Mo_sv 02Feb2006
   LULTRA =        F    use ultrasoft PP ?
   IUNSCR =        1    unscreen: 0-lin 1-nonlin 2-no
   RPACOR =    2.200    partial core radius
   POMASS =   95.940; ZVAL   =   14.000    mass and valenz
   RCORE  =    2.500    outmost cutoff radius
   RWIGS  =    2.750; RWIGS  =    1.455    wigner-seitz radius (au A)
   ENMAX  =  242.676; ENMIN  =  182.007 eV
   ICORE  =        3    local potential
   LCOR   =        T    correct aug charges
   LPAW   =        T    paw PP
   EAUG   =  446.014
   DEXC   =    0.000
   RMAX   =    2.563    core radius for proj-oper
   RAUG   =    1.300    factor for augmentation sphere
   RDEP   =    2.641    radius for radial grids
   RDEPT  =    2.031    core radius for aug-charge

   Atomic configuration
   11 entries
     n  l   j            E        occ.
     1  0  0.50    -19819.0341   2.0000
     2  0  0.50     -2799.0127   2.0000
     2  1  1.50     -2502.0276   6.0000
     3  0  0.50      -476.4449   2.0000
     3  1  1.50      -379.1496   6.0000
     3  2  2.50      -220.9367  10.0000
     4  0  0.50       -64.3378   2.0000
     5  0  0.50        -4.0862   1.0000
     4  1  1.50       -38.4773   6.0000
     4  2  2.50        -3.7535   5.0000
     4  3  2.50        -1.3606   0.0000
   Description
     l       E           TYP  RCUT    TYP  RCUT
     0    -64.3377829     23  2.100
     0     -4.0861640     23  2.400
     1    -38.4772993     23  2.100
     1     13.6058260     23  2.100
     2     -3.7534941     23  2.400
     2     -5.1140767     23  2.400
     3     -4.0817478     23  2.500
  local pseudopotential read in
  partial core-charges read in
  partial kinetic energy density read in
  atomic valenz-charges read in
  non local Contribution for L=           0  read in
    real space projection operators read in
  non local Contribution for L=           0  read in
    real space projection operators read in
  non local Contribution for L=           1  read in
    real space projection operators read in
  non local Contribution for L=           1  read in
    real space projection operators read in
  non local Contribution for L=           2  read in
    real space projection operators read in
  non local Contribution for L=           2  read in
    real space projection operators read in
    PAW grid and wavefunctions read in

   number of l-projection  operators is LMAX  =           6
   number of lm-projection operators is LMMAX =          18

 POTCAR:    PAW_PBE O 08Apr2002
   VRHFIN =O: s2p4
   LEXCH  = PE
   EATOM  =   432.3788 eV,   31.7789 Ry

   TITEL  = PAW_PBE O 08Apr2002
   LULTRA =        F    use ultrasoft PP ?
   IUNSCR =        1    unscreen: 0-lin 1-nonlin 2-no
   RPACOR =    1.200    partial core radius
   POMASS =   16.000; ZVAL   =    6.000    mass and valenz
   RCORE  =    1.520    outmost cutoff radius
   RWIGS  =    1.550; RWIGS  =    0.820    wigner-seitz radius (au A)
   ENMAX  =  400.000; ENMIN  =  300.000 eV
   ICORE  =        2    local potential
   LCOR   =        T    correct aug charges
   LPAW   =        T    paw PP
   EAUG   =  605.392
   DEXC   =    0.000
   RMAX   =    1.553    core radius for proj-oper
   RAUG   =    1.300    factor for augmentation sphere
   RDEP   =    1.550    radius for radial grids
   RDEPT  =    1.329    core radius for aug-charge

   Atomic configuration
    4 entries
     n  l   j            E        occ.
     1  0  0.50      -514.6923   2.0000
     2  0  0.50       -23.9615   2.0000
     2  1  0.50        -9.0305   4.0000
     3  2  1.50        -9.5241   0.0000
   Description
     l       E           TYP  RCUT    TYP  RCUT
     0    -23.9615318     23  1.200
     0     -9.5240782     23  1.200
     1     -9.0304911     23  1.520
     1      8.1634956     23  1.520
     2     -9.5240782      7  1.500
  local pseudopotential read in
  partial core-charges read in
  partial kinetic energy density read in
  kinetic energy density of atom read in
  atomic valenz-charges read in
  non local Contribution for L=           0  read in
    real space projection operators read in
  non local Contribution for L=           0  read in
    real space projection operators read in
  non local Contribution for L=           1  read in
    real space projection operators read in
  non local Contribution for L=           1  read in
    real space projection operators read in
    PAW grid and wavefunctions read in

   number of l-projection  operators is LMAX  =           4
   number of lm-projection operators is LMMAX =           8


 -----------------------------------------------------------------------------
|                                                                             |
|  ADVICE TO THIS USER RUNNING 'VASP/VAMP'   (HEAR YOUR MASTER'S VOICE ...):  |
|                                                                             |
|      You have a (more or less) 'large supercell' and for larger cells       |
|      it might be more efficient to use real space projection opertators     |
|      So try LREAL= Auto  in the INCAR   file.                               |
|      Mind: At the moment your POTCAR file does not contain real space       |
|       projectors, and has to be modified,  BUT if you                       |
|      want to do an extremely  accurate calculation you might also keep the  |
|      reciprocal projection scheme          (i.e. LREAL=.FALSE.)             |
|                                                                             |
 -----------------------------------------------------------------------------


 -----------------------------------------------------------------------------
|                                                                             |
|  ADVICE TO THIS USER RUNNING 'VASP/VAMP'   (HEAR YOUR MASTER'S VOICE ...):  |
|                                                                             |
|      You enforced a specific xc-type in the INCAR file,                     |
|      a different type was found on the POTCAR file                          |
|          I HOPE YOU KNOW, WHAT YOU ARE  DOING                               |
|                                                                             |
 -----------------------------------------------------------------------------

  PAW_PBE Mo_sv 02Feb2006               :
 energy of atom  1       EATOM=-1862.2866
 kinetic energy error for atom=    0.0074 (will be added to EATOM!!)
  PAW_PBE O 08Apr2002                   :
 energy of atom  2       EATOM= -432.3788
 kinetic energy error for atom=    0.0224 (will be added to EATOM!!)


 POSCAR: Mo4 O12
  positions in direct lattice
  No initial velocities read in
 exchange correlation table for  LEXCH =       14
   RHO(1)=    0.500       N(1)  =     2000
   RHO(2)=  100.500       N(2)  =     4000



--------------------------------------------------------------------------------------------------------


 ion  position               nearest neighbor table
   1  0.250  0.067  0.025-  13 1.67  12 1.76  11 1.94  11 1.94  12 2.13  40 2.39  10 3.48  10 3.48

   2  0.750  0.567  0.100-  14 1.67  15 1.76  16 1.94  16 1.94  15 2.13  17 2.39   3 3.48   3 3.48

   3  0.250  0.433  0.150-  19 1.67  18 1.76  17 1.94  17 1.94  18 2.13  16 2.39   2 3.48   2 3.48

   4  0.750  0.933  0.225-  20 1.67  21 1.76  22 1.94  22 1.94  21 2.13  23 2.39   5 3.48   5 3.48

   5  0.250  0.067  0.275-  25 1.67  24 1.76  23 1.94  23 1.94  24 2.13  22 2.39   4 3.48   4 3.48

   6  0.750  0.933  0.725-  26 1.67  27 1.76  28 1.94  28 1.94  27 2.13  29 2.39   7 3.48   7 3.48

   7  0.250  0.067  0.775-  31 1.67  30 1.76  29 1.94  29 1.94  30 2.13  28 2.39   6 3.48   6 3.48

   8  0.750  0.567  0.850-  32 1.67  33 1.76  34 1.94  34 1.94  33 2.13  35 2.39   9 3.48   9 3.48

   9  0.250  0.433  0.900-  37 1.67  36 1.76  35 1.94  35 1.94  36 2.13  34 2.39   8 3.48   8 3.48

  10  0.750  0.933  0.975-  38 1.67  39 1.76  40 1.94  40 1.94  39 2.13  11 2.39   1 3.48   1 3.48

  11  0.750  0.998  0.016-   1 1.94   1 1.94  10 2.39
  12  0.250  0.519  0.021-   1 1.76   1 2.13
  13  0.250  0.030  0.053-   1 1.67
  14  0.750  0.530  0.072-   2 1.67
  15  0.750  0.019  0.104-   2 1.76   2 2.13
  16  0.250  0.498  0.109-   2 1.94   2 1.94   3 2.39
  17  0.750  0.502  0.141-   3 1.94   3 1.94   2 2.39
  18  0.250  0.981  0.146-   3 1.76   3 2.13
  19  0.250  0.470  0.178-   3 1.67
  20  0.750  0.970  0.197-   4 1.67
  21  0.750  0.481  0.229-   4 1.76   4 2.13
  22  0.250  0.002  0.234-   4 1.94   4 1.94   5 2.39
  23  0.750  0.998  0.266-   5 1.94   5 1.94   4 2.39
  24  0.250  0.519  0.271-   5 1.76   5 2.13
  25  0.250  0.030  0.303-   5 1.67
  26  0.750  0.970  0.697-   6 1.67
  27  0.750  0.481  0.729-   6 1.76   6 2.13
  28  0.250  0.002  0.734-   6 1.94   6 1.94   7 2.39
  29  0.750  0.998  0.766-   7 1.94   7 1.94   6 2.39
  30  0.250  0.519  0.771-   7 1.76   7 2.13
  31  0.250  0.030  0.803-   7 1.67
  32  0.750  0.530  0.822-   8 1.67
  33  0.750  0.019  0.854-   8 1.76   8 2.13
  34  0.250  0.498  0.859-   8 1.94   8 1.94   9 2.39
  35  0.750  0.502  0.891-   9 1.94   9 1.94   8 2.39
  36  0.250  0.981  0.896-   9 1.76   9 2.13
  37  0.250  0.470  0.928-   9 1.67
  38  0.750  0.970  0.947-  10 1.67
  39  0.750  0.481  0.979-  10 1.76  10 2.13
  40  0.250  0.002  0.984-  10 1.94  10 1.94   1 2.39


IMPORTANT INFORMATION: All symmetrisations will be switched off!
NOSYMM: (Re-)initialisation of all symmetry stuff for point group C_1.




Automatic generation of k-mesh.
 generate k-points for:    8    7    1
Space group operators:
 irot       det(A)        alpha          n_x          n_y          n_z        tau_x        tau_y        tau_z
    1     1.000000     0.000000     1.000000     0.000000     0.000000     0.000000     0.000000     0.000000

 Subroutine IBZKPT returns following result:
 ===========================================

 Found     29 irreducible k-points:

 Following reciprocal coordinates:
            Coordinates               Weight
  0.000000  0.000000  0.000000      1.000000
  0.125000  0.000000  0.000000      2.000000
  0.250000  0.000000  0.000000      2.000000
  0.375000  0.000000  0.000000      2.000000
  0.500000  0.000000  0.000000      1.000000
  0.000000  0.142857  0.000000      2.000000
  0.125000  0.142857  0.000000      2.000000
  0.250000  0.142857  0.000000      2.000000
  0.375000  0.142857  0.000000      2.000000
  0.500000  0.142857  0.000000      2.000000
 -0.375000  0.142857  0.000000      2.000000
 -0.250000  0.142857  0.000000      2.000000
 -0.125000  0.142857  0.000000      2.000000
  0.000000  0.285714  0.000000      2.000000
  0.125000  0.285714  0.000000      2.000000
  0.250000  0.285714  0.000000      2.000000
  0.375000  0.285714  0.000000      2.000000
  0.500000  0.285714  0.000000      2.000000
 -0.375000  0.285714  0.000000      2.000000
 -0.250000  0.285714  0.000000      2.000000
 -0.125000  0.285714  0.000000      2.000000
  0.000000  0.428571  0.000000      2.000000
  0.125000  0.428571  0.000000      2.000000
  0.250000  0.428571  0.000000      2.000000
  0.375000  0.428571  0.000000      2.000000
  0.500000  0.428571  0.000000      2.000000
 -0.375000  0.428571  0.000000      2.000000
 -0.250000  0.428571  0.000000      2.000000
 -0.125000  0.428571  0.000000      2.000000

 Following cartesian coordinates:
            Coordinates               Weight
  0.000000  0.000000  0.000000      1.000000
  0.033927  0.000000  0.000000      2.000000
  0.067854  0.000000  0.000000      2.000000
  0.101780  0.000000  0.000000      2.000000
  0.135707  0.000000  0.000000      1.000000
  0.000000  0.036947  0.000000      2.000000
  0.033927  0.036947  0.000000      2.000000
  0.067854  0.036947  0.000000      2.000000
  0.101780  0.036947  0.000000      2.000000
  0.135707  0.036947  0.000000      2.000000
 -0.101780  0.036947  0.000000      2.000000
 -0.067854  0.036947  0.000000      2.000000
 -0.033927  0.036947  0.000000      2.000000
  0.000000  0.073895  0.000000      2.000000
  0.033927  0.073895  0.000000      2.000000
  0.067854  0.073895  0.000000      2.000000
  0.101780  0.073895  0.000000      2.000000
  0.135707  0.073895  0.000000      2.000000
 -0.101780  0.073895  0.000000      2.000000
 -0.067854  0.073895  0.000000      2.000000
 -0.033927  0.073895  0.000000      2.000000
  0.000000  0.110842  0.000000      2.000000
  0.033927  0.110842  0.000000      2.000000
  0.067854  0.110842  0.000000      2.000000
  0.101780  0.110842  0.000000      2.000000
  0.135707  0.110842  0.000000      2.000000
 -0.101780  0.110842  0.000000      2.000000
 -0.067854  0.110842  0.000000      2.000000
 -0.033927  0.110842  0.000000      2.000000

 TETIRR: Found    166 inequivalent tetrahedra from      336


--------------------------------------------------------------------------------------------------------




 Dimension of arrays:
   k-points           NKPTS =     29   k-points in BZ     NKDIM =     29   number of bands    NBANDS=    192
   number of dos      NEDOS =    301   number of ions     NIONS =     40
   non local maximal  LDIM  =      6   non local SUM 2l+1 LMDIM =     18
   total plane-waves  NPLWV = 960000
   max r-space proj   IRMAX =      1   max aug-charges    IRDMAX=  49968
   dimension x,y,z NGX =    40 NGY =   40 NGZ =  600
   dimension x,y,z NGXF=    80 NGYF=   80 NGZF= 1200
   support grid    NGXF=    80 NGYF=   80 NGZF= 1200
   ions per type =              10  30
 NGX,Y,Z   is equivalent  to a cutoff of  18.05, 17.20, 16.85 a.u.
 NGXF,Y,Z  is equivalent  to a cutoff of  36.10, 34.40, 33.69 a.u.


 I would recommend the setting:
   dimension x,y,z NGX =    27 NGY =   28 NGZ =  432
 SYSTEM =  unknown system
 POSCAR =  Mo4 O12

 Startparameter for this run:
   NWRITE =      2    write-flag & timer
   PREC   = accura    normal or accurate (medium, high low for compatibility)
   ISTART =      0    job   : 0-new  1-cont  2-samecut
   ICHARG =      2    charge: 1-file 2-atom 10-const
   ISPIN  =      1    spin polarized calculation?
   LNONCOLLINEAR =      F non collinear calculations
   LSORBIT =      F    spin-orbit coupling
   INIWAV =      1    electr: 0-lowe 1-rand  2-diag
   LASPH  =      F    aspherical Exc in radial PAW
   METAGGA=      F    non-selfconsistent MetaGGA calc.

 Electronic Relaxation 1
   ENCUT  =  500.0 eV  36.75 Ry    6.06 a.u.   6.72  7.05107.95*2*pi/ulx,y,z
   ENINI  =  500.0     initial cutoff
   ENAUG  =  605.4 eV  augmentation charge cutoff
   NELM   =    200;   NELMIN=  4; NELMDL= -5     # of ELM steps
   EDIFF  = 0.1E-05   stopping-criterion for ELM
   LREAL  =      F    real-space projection
   NLSPLINE    = F    spline interpolate recip. space projectors
   LCOMPAT=      F    compatible to vasp.4.4
   GGA_COMPAT  = T    GGA compatible to vasp.4.4-vasp.4.6
   LMAXPAW     = -100 max onsite density
   LMAXMIX     =    2 max onsite mixed and CHGCAR
   VOSKOWN=      0    Vosko Wilk Nusair interpolation
   ROPT   =    0.00000   0.00000
 Ionic relaxation
   EDIFFG = -.1E-02   stopping-criterion for IOM
   NSW    =      0    number of steps for IOM
   NBLOCK =      1;   KBLOCK =      1    inner block; outer block
   IBRION =     -1    ionic relax: 0-MD 1-quasi-New 2-CG
   NFREE  =      0    steps in history (QN), initial steepest desc. (CG)
   ISIF   =      2    stress and relaxation
   IWAVPR =     10    prediction:  0-non 1-charg 2-wave 3-comb
   ISYM   =      0    0-nonsym 1-usesym 2-fastsym
   LCORR  =      T    Harris-Foulkes like correction to forces

   POTIM  = 0.5000    time-step for ionic-motion
   TEIN   =    0.0    initial temperature
   TEBEG  =    0.0;   TEEND  =   0.0 temperature during run
   SMASS  =  -3.00    Nose mass-parameter (am)
   estimated Nose-frequenzy (Omega)   =  0.10E-29 period in steps =****** mass=  -0.310E-27a.u.
   SCALEE = 1.0000    scale energy and forces
   NPACO  =    256;   APACO  = 16.0  distance and # of slots for P.C.
   PSTRESS=    0.0 pullay stress

  Mass of Ions in am
   POMASS =  95.94 16.00
  Ionic Valenz
   ZVAL   =  14.00  6.00
  Atomic Wigner-Seitz radii
   RWIGS  =  -1.00 -1.00
  virtual crystal weights
   VCA    =   1.00  1.00
   NELECT =     320.0000    total number of electrons
   NUPDOWN=      -1.0000    fix difference up-down

 DOS related values:
   EMIN   =  10.00;   EMAX   =-10.00  energy-range for DOS
   EFERMI =   0.00
   ISMEAR =    -5;   SIGMA  =   0.01  broadening in eV -4-tet -1-fermi 0-gaus

 Electronic relaxation 2 (details)
   IALGO  =     38    algorithm
   LDIAG  =      T    sub-space diagonalisation (order eigenvalues)
   LSUBROT=      F    optimize rotation matrix (better conditioning)
   TURBO    =      0    0=normal 1=particle mesh
   IRESTART =      0    0=no restart 2=restart with 2 vectors
   NREBOOT  =      0    no. of reboots
   NMIN     =      0    reboot dimension
   EREF     =   0.00    reference energy to select bands
   IMIX   =      4    mixing-type and parameters
     AMIX     =   0.40;   BMIX     =  1.00
     AMIX_MAG =   1.60;   BMIX_MAG =  1.00
     AMIN     =   0.10
     WC   =   100.;   INIMIX=   1;  MIXPRE=   1;  MAXMIX= -45

 Intra band minimization:
   WEIMIN = 0.0000     energy-eigenvalue tresh-hold
   EBREAK =  0.13E-08  absolut break condition
   DEPER  =   0.30     relativ break condition

   TIME   =   0.40     timestep for ELM

  volume/ion in A,a.u.               =      21.09       142.30
  Fermi-wavevector in a.u.,A,eV,Ry     =   1.185142  2.239594 19.110230  1.404562
  Thomas-Fermi vector in A             =   2.321342

 Write flags
   LWAVE  =      F    write WAVECAR
   LCHARG =      T    write CHGCAR
   LVTOT  =      F    write LOCPOT, total local potential
   LVHAR  =      T    write LOCPOT, Hartree potential only
   LELF   =      F    write electronic localiz. function (ELF)
   LORBIT =     10    0 simple, 1 ext, 2 COOP (PROOUT)


 Dipole corrections
   LMONO  =      F    monopole corrections only (constant potential shift)
   LDIPOL =      F    correct potential (dipole corrections)
   IDIPOL =      0    1-x, 2-y, 3-z, 4-all directions
   EPSILON=  1.0000000 bulk dielectric constant

 Core level calculations are selected ICORELEVEL =  1
 Exchange correlation treatment:
   GGA     =    PS    GGA type
   LEXCH   =    14    internal setting for exchange type
   VOSKOWN=      0    Vosko Wilk Nusair interpolation
   LHFCALC =     F    Hartree Fock is set to
   LHFONE  =     F    Hartree Fock one center treatment
   AEXX    =    0.0000 exact exchange contribution

 Linear response parameters
   LEPSILON=     F    determine dielectric tensor
   LRPA    =     F    only Hartree local field effects (RPA)
   LNABLA  =     F    use nabla operator in PAW spheres
   LVEL    =     F    velocity operator in full k-point grid
   LINTERFAST=   F  fast interpolation
   KINTER  =     0    interpolate to denser k-point grid
   CSHIFT  =0.1000    complex shift for real part using Kramers Kronig
   OMEGAMAX=  -1.0    maximum frequency
   DEG_THRESHOLD= 0.2000000E-02 threshold for treating states as degnerate
   RTIME   =    0.100 relaxation time in fs

 Orbital magnetization related:
   ORBITALMAG=     F  switch on orbital magnetization
   LCHIMAG   =     F  perturbation theory with respect to B field
   DQ        =  0.001000  dq finite difference perturbation B field


 -----------------------------------------------------------------------------
|                                                                             |
|           W    W    AA    RRRRR   N    N  II  N    N   GGGG   !!!           |
|           W    W   A  A   R    R  NN   N  II  NN   N  G    G  !!!           |
|           W    W  A    A  R    R  N N  N  II  N N  N  G       !!!           |
|           W WW W  AAAAAA  RRRRR   N  N N  II  N  N N  G  GGG   !            |
|           WW  WW  A    A  R   R   N   NN  II  N   NN  G    G                |
|           W    W  A    A  R    R  N    N  II  N    N   GGGG   !!!           |
|                                                                             |
|      One of the lattice vectors is very long (>50 A), but AMIN is rather    |
|      large. This can spoil convergence since charge sloshing might occur    |
|      along the long lattice vector. If problems with convergence are        |
|      observed, try to decrease AMIN to a smaller values (e.g. 0.01).        |
|      Note: this warning only applies if the selfconsistency cycle is used.  |
|                                                                             |
 -----------------------------------------------------------------------------



--------------------------------------------------------------------------------------------------------


 Static calculation
 charge density and potential will be updated during run
 non-spin polarized calculation
 Variant of blocked Davidson
 Davidson routine will perform the subspace rotation
 perform sub-space diagonalisation
    after iterative eigenvector-optimisation
 modified Broyden-mixing scheme, WC =      100.0
 initial mixing is a Kerker type mixing with AMIX =  0.4000 and BMIX =      1.0000
 Hartree-type preconditioning will be used
 using additional bands           32
 reciprocal scheme for non local part
 use partial core corrections
 calculate Harris-corrections to forces
   (improved forces if not selfconsistent)
 use gradient corrections
 use of overlap-Matrix (Vanderbilt PP)
 Fermi weights with tetrahedron method with Bloechl corrections


--------------------------------------------------------------------------------------------------------


  energy-cutoff  :      500.00
  volume of cell :      843.46
      direct lattice vectors                 reciprocal lattice vectors
     3.684399605  0.000000000  0.000000000     0.271414642  0.000000000  0.000000000
     0.000000000  3.866507292  0.000000000     0.000000000  0.258631350  0.000000000
     0.000000000  0.000000000 59.207592011     0.000000000  0.000000000  0.016889726

  length of vectors
     3.684399605  3.866507292 59.207592011     0.271414642  0.258631350  0.016889726



 k-points in units of 2pi/SCALE and weight: read from INCAR
   0.00000000  0.00000000  0.00000000       0.018
   0.03392683  0.00000000  0.00000000       0.036
   0.06785366  0.00000000  0.00000000       0.036
   0.10178049  0.00000000  0.00000000       0.036
   0.13570732  0.00000000  0.00000000       0.018
   0.00000000  0.03694734  0.00000000       0.036
   0.03392683  0.03694734  0.00000000       0.036
   0.06785366  0.03694734  0.00000000       0.036
   0.10178049  0.03694734  0.00000000       0.036
   0.13570732  0.03694734  0.00000000       0.036
  -0.10178049  0.03694734  0.00000000       0.036
  -0.06785366  0.03694734  0.00000000       0.036
  -0.03392683  0.03694734  0.00000000       0.036
   0.00000000  0.07389467  0.00000000       0.036
   0.03392683  0.07389467  0.00000000       0.036
   0.06785366  0.07389467  0.00000000       0.036
   0.10178049  0.07389467  0.00000000       0.036
   0.13570732  0.07389467  0.00000000       0.036
  -0.10178049  0.07389467  0.00000000       0.036
  -0.06785366  0.07389467  0.00000000       0.036
  -0.03392683  0.07389467  0.00000000       0.036
   0.00000000  0.11084201  0.00000000       0.036
   0.03392683  0.11084201  0.00000000       0.036
   0.06785366  0.11084201  0.00000000       0.036
   0.10178049  0.11084201  0.00000000       0.036
   0.13570732  0.11084201  0.00000000       0.036
  -0.10178049  0.11084201  0.00000000       0.036
  -0.06785366  0.11084201  0.00000000       0.036
  -0.03392683  0.11084201  0.00000000       0.036

 k-points in reciprocal lattice and weights: read from INCAR
   0.00000000  0.00000000  0.00000000       0.018
   0.12500000  0.00000000  0.00000000       0.036
   0.25000000  0.00000000  0.00000000       0.036
   0.37500000  0.00000000  0.00000000       0.036
   0.50000000  0.00000000  0.00000000       0.018
   0.00000000  0.14285714  0.00000000       0.036
   0.12500000  0.14285714  0.00000000       0.036
   0.25000000  0.14285714  0.00000000       0.036
   0.37500000  0.14285714  0.00000000       0.036
   0.50000000  0.14285714  0.00000000       0.036
  -0.37500000  0.14285714  0.00000000       0.036
  -0.25000000  0.14285714  0.00000000       0.036
  -0.12500000  0.14285714  0.00000000       0.036
   0.00000000  0.28571429  0.00000000       0.036
   0.12500000  0.28571429  0.00000000       0.036
   0.25000000  0.28571429  0.00000000       0.036
   0.37500000  0.28571429  0.00000000       0.036
   0.50000000  0.28571429  0.00000000       0.036
  -0.37500000  0.28571429  0.00000000       0.036
  -0.25000000  0.28571429  0.00000000       0.036
  -0.12500000  0.28571429  0.00000000       0.036
   0.00000000  0.42857143  0.00000000       0.036
   0.12500000  0.42857143  0.00000000       0.036
   0.25000000  0.42857143  0.00000000       0.036
   0.37500000  0.42857143  0.00000000       0.036
   0.50000000  0.42857143  0.00000000       0.036
  -0.37500000  0.42857143  0.00000000       0.036
  -0.25000000  0.42857143  0.00000000       0.036
  -0.12500000  0.42857143  0.00000000       0.036

 position of ions in fractional coordinates (direct lattice)
   0.25000000  0.06740791  0.02454658
   0.75000000  0.56740791  0.10045344
   0.25000000  0.43259206  0.14954658
   0.75000000  0.93259209  0.22545341
   0.25000000  0.06740791  0.27454656
   0.75000000  0.93259209  0.72545338
   0.25000000  0.06740791  0.77454656
   0.75000000  0.56740791  0.85045344
   0.25000000  0.43259206  0.89954656
   0.75000000  0.93259209  0.97545338
   0.75000000  0.99843460  0.01558775
   0.25000000  0.51945770  0.02076116
   0.25000000  0.02981352  0.05272274
   0.75000000  0.52981353  0.07227726
   0.75000000  0.01945768  0.10423884
   0.25000000  0.49843457  0.10941225
   0.75000000  0.50156540  0.14058775
   0.25000000  0.98054230  0.14576116
   0.25000000  0.47018650  0.17772275
   0.75000000  0.97018647  0.19727725
   0.75000000  0.48054230  0.22923884
   0.25000000  0.00156543  0.23441225
   0.75000000  0.99843460  0.26558775
   0.25000000  0.51945770  0.27076116
   0.25000000  0.02981352  0.30272275
   0.75000000  0.97018647  0.69727725
   0.75000000  0.48054230  0.72923887
   0.25000000  0.00156543  0.73441225
   0.75000000  0.99843460  0.76558775
   0.25000000  0.51945770  0.77076113
   0.25000000  0.02981352  0.80272275
   0.75000000  0.52981353  0.82227725
   0.75000000  0.01945768  0.85423887
   0.25000000  0.49843457  0.85941225
   0.75000000  0.50156540  0.89058775
   0.25000000  0.98054230  0.89576113
   0.25000000  0.47018650  0.92772275
   0.75000000  0.97018647  0.94727725
   0.75000000  0.48054230  0.97923887
   0.25000000  0.00156543  0.98441225

 position of ions in cartesian coordinates  (Angst):
   0.92109990  0.26063319  1.45334372
   2.76329970  2.19388681  5.94760605
   0.92109990  1.67262037  8.85429284
   2.76329970  3.60587413 13.34855334
   0.92109990  0.26063319 16.25524095
   2.76329970  3.60587413 42.95234757
   0.92109990  0.26063319 45.85903695
   2.76329970  2.19388681 50.35330006
   0.92109990  1.67262037 53.25998596
   2.76329970  3.60587413 57.75424557
   2.76329970  3.86045467  0.92291308
   0.92109990  2.00848698  1.22921841
   0.92109990  0.11527417  3.12158678
   2.76329970  2.04852787  4.27936223
   2.76329970  0.07523325  6.17173059
   0.92109990  1.92720091  6.47803604
   2.76329970  1.93930626  8.32386197
   0.92109990  3.79127396  8.63016741
   0.92109990  1.81797954 10.52253619
   2.76329970  3.75123307 11.68031081
   2.76329970  1.85802031 13.57267959
   0.92109990  0.00605276 13.87898504
   2.76329970  3.86045467 15.72481097
   0.92109990  2.00848698 16.03111641
   0.92109990  0.11527417 17.92348519
   2.76329970  3.75123307 41.28410682
   2.76329970  1.85802031 43.17647737
   0.92109990  0.00605276 43.48278104
   2.76329970  3.86045467 45.32860697
   0.92109990  2.00848698 45.63491064
   0.92109990  0.11527417 47.52728120
   2.76329970  2.04852787 48.68505582
   2.76329970  0.07523325 50.57742638
   0.92109990  1.92720091 50.88373004
   2.76329970  1.93930626 52.72955597
   0.92109990  3.79127396 53.03585964
   0.92109990  1.81797954 54.92823020
   2.76329970  3.75123307 56.08600482
   2.76329970  1.85802031 57.97837538
   0.92109990  0.00605276 58.28467905



--------------------------------------------------------------------------------------------------------


 k-point  1 :   0.0000 0.0000 0.0000  plane waves:   21373
 k-point  2 :   0.1250 0.0000 0.0000  plane waves:   21331
 k-point  3 :   0.2500 0.0000 0.0000  plane waves:   21295
 k-point  4 :   0.3750 0.0000 0.0000  plane waves:   21364
 k-point  5 :   0.5000 0.0000 0.0000  plane waves:   21330
 k-point  6 :   0.0000 0.1429 0.0000  plane waves:   21414
 k-point  7 :   0.1250 0.1429 0.0000  plane waves:   21397
 k-point  8 :   0.2500 0.1429 0.0000  plane waves:   21371
 k-point  9 :   0.3750 0.1429 0.0000  plane waves:   21364
 k-point 10 :   0.5000 0.1429 0.0000  plane waves:   21370
 k-point 11 :  -0.3750 0.1429 0.0000  plane waves:   21364
 k-point 12 :  -0.2500 0.1429 0.0000  plane waves:   21371
 k-point 13 :  -0.1250 0.1429 0.0000  plane waves:   21397
 k-point 14 :   0.0000 0.2857 0.0000  plane waves:   21400
 k-point 15 :   0.1250 0.2857 0.0000  plane waves:   21443
 k-point 16 :   0.2500 0.2857 0.0000  plane waves:   21428
 k-point 17 :   0.3750 0.2857 0.0000  plane waves:   21427
 k-point 18 :   0.5000 0.2857 0.0000  plane waves:   21462
 k-point 19 :  -0.3750 0.2857 0.0000  plane waves:   21427
 k-point 20 :  -0.2500 0.2857 0.0000  plane waves:   21428
 k-point 21 :  -0.1250 0.2857 0.0000  plane waves:   21443
 k-point 22 :   0.0000 0.4286 0.0000  plane waves:   21538
 k-point 23 :   0.1250 0.4286 0.0000  plane waves:   21464
 k-point 24 :   0.2500 0.4286 0.0000  plane waves:   21432
 k-point 25 :   0.3750 0.4286 0.0000  plane waves:   21445
 k-point 26 :   0.5000 0.4286 0.0000  plane waves:   21466
 k-point 27 :  -0.3750 0.4286 0.0000  plane waves:   21445
 k-point 28 :  -0.2500 0.4286 0.0000  plane waves:   21432
 k-point 29 :  -0.1250 0.4286 0.0000  plane waves:   21464

 maximum and minimum number of plane-waves per node :       912      864

 maximum number of plane-waves:     21538
 maximum index in each direction:
   IXMAX=    7   IYMAX=    7   IZMAX=  107
   IXMIN=   -7   IYMIN=   -7   IZMIN= -107

 NGX is ok and might be reduce to  30
 NGY is ok and might be reduce to  30
 NGZ is ok and might be reduce to 430

 parallel 3D FFT for wavefunctions:
    minimum data exchange during FFTs selected (reduces bandwidth)
 parallel 3D FFT for charge:
    minimum data exchange during FFTs selected (reduces bandwidth)


 total amount of memory used by VASP on root node   157499. kBytes
========================================================================

   base      :      30000. kBytes
   nonl-proj :       8065. kBytes
   fftplans  :      13725. kBytes
   grid      :      23450. kBytes
   one-center:         31. kBytes
   wavefun   :      82228. kBytes

     INWAV:  cpu time    0.0000: real time    0.0000
 Broyden mixing: mesh for mixing (old mesh)
   NGX = 13   NGY = 15   NGZ =215
  (NGX  = 80   NGY  = 80   NGZ  =***)
  gives a total of  41925 points

 initial charge density was supplied:
 charge density of overlapping atoms calculated
 number of electron     320.0000000 magnetization
 keeping initial charge density in first step


--------------------------------------------------------------------------------------------------------


 Maximum index for augmentation-charges         2701 (set IRDMAX)


--------------------------------------------------------------------------------------------------------


 First call to EWALD:  gamma=   0.188
 Maximum number of real-space cells 6x 6x 1
 Maximum number of reciprocal cells 1x 1x15

 FEWALD executed in parallel
    FEWALD:  cpu time    0.0120: real time    0.0095


----------------------------------------- Iteration    1(   1)  ---------------------------------------


    POTLOK:  cpu time    0.3000: real time    0.2980
    SETDIJ:  cpu time    0.0080: real time    0.0102
     EDDAV:  cpu time   17.9291: real time   17.9422
 BZINTS: Fermi energy: 14.628359;320.000000 electrons
         Band energy:***********;  BLOECHL correction: -0.088848
       DOS:  cpu time    0.0640: real time    0.0638
    --------------------------------------------
      LOOP:  cpu time   18.3011: real time   18.3452

 eigenvalue-minimisations  : 12792
 total energy-change (2. order) : 0.3145547E+04  (-0.1837307E+05)
 number of electron     320.0000000 magnetization
 augmentation part      320.0000000 magnetization

 Free energy of the ion-electron system (eV)
  ---------------------------------------------------
  alpha Z        PSCENC =       762.99496879
  Ewald energy   TEWEN  =    440395.63270309
  -Hartree energ DENC   =   -469217.18774031
  -exchange      EXHF   =         0.00000000
  -V(xc)+E(xc)   XCENC  =      1503.14161354
  PAW double counting   =     25361.10276503   -25213.74141879
  entropy T*S    EENTRO =         0.00000000
  eigenvalues    EBANDS =     -1978.69677400
  atomic energy  EATOM  =     31532.30055140
  Solvation  Ediel_sol  =         0.00000000
  ---------------------------------------------------
  free energy    TOTEN  =      3145.54666875 eV

  energy without entropy =     3145.54666875  energy(sigma->0) =     3145.54666875


--------------------------------------------------------------------------------------------------------




----------------------------------------- Iteration    1(   2)  ---------------------------------------


     EDDAV:  cpu time   18.7292: real time   18.7422
 BZINTS: Fermi energy: -0.776315;320.000000 electrons
         Band energy:***********;  BLOECHL correction:  0.000000
       DOS:  cpu time    0.0120: real time    0.0103
    --------------------------------------------
      LOOP:  cpu time   18.7452: real time   18.7615

 eigenvalue-minimisations  : 13520
 total energy-change (2. order) :-0.3320505E+04  (-0.3219588E+04)
 number of electron     320.0000000 magnetization
 augmentation part      320.0000000 magnetization

 Free energy of the ion-electron system (eV)
  ---------------------------------------------------
  alpha Z        PSCENC =       762.99496879
  Ewald energy   TEWEN  =    440395.63270309
  -Hartree energ DENC   =   -469217.18774031
  -exchange      EXHF   =         0.00000000
  -V(xc)+E(xc)   XCENC  =      1503.14161354
  PAW double counting   =     25361.10276503   -25213.74141879
  entropy T*S    EENTRO =         0.00000000
  eigenvalues    EBANDS =     -5299.20197696
  atomic energy  EATOM  =     31532.30055140
  Solvation  Ediel_sol  =         0.00000000
  ---------------------------------------------------
  free energy    TOTEN  =      -174.95853420 eV

  energy without entropy =     -174.95853420  energy(sigma->0) =     -174.95853420


--------------------------------------------------------------------------------------------------------




----------------------------------------- Iteration    1(   3)  ---------------------------------------


     EDDAV:  cpu time   17.7771: real time   17.7855
 BZINTS: Fermi energy: -4.229715;320.000000 electrons
         Band energy:***********;  BLOECHL correction:  0.000000
       DOS:  cpu time    0.0080: real time    0.0102
    --------------------------------------------
      LOOP:  cpu time   17.7851: real time   17.8063

 eigenvalue-minimisations  : 12600
 total energy-change (2. order) :-0.2551326E+03  (-0.2522493E+03)
 number of electron     320.0000000 magnetization
 augmentation part      320.0000000 magnetization

 Free energy of the ion-electron system (eV)
  ---------------------------------------------------
  alpha Z        PSCENC =       762.99496879
  Ewald energy   TEWEN  =    440395.63270309
  -Hartree energ DENC   =   -469217.18774031
  -exchange      EXHF   =         0.00000000
  -V(xc)+E(xc)   XCENC  =      1503.14161354
  PAW double counting   =     25361.10276503   -25213.74141879
  entropy T*S    EENTRO =         0.00000000
  eigenvalues    EBANDS =     -5554.33460906
  atomic energy  EATOM  =     31532.30055140
  Solvation  Ediel_sol  =         0.00000000
  ---------------------------------------------------
  free energy    TOTEN  =      -430.09116631 eV

  energy without entropy =     -430.09116631  energy(sigma->0) =     -430.09116631


--------------------------------------------------------------------------------------------------------




----------------------------------------- Iteration    1(   4)  ---------------------------------------


     EDDAV:  cpu time   19.0892: real time   19.1045
 BZINTS: Fermi energy: -4.320063;320.000000 electrons
         Band energy:***********;  BLOECHL correction:  0.000000
       DOS:  cpu time    0.0120: real time    0.0120
    --------------------------------------------
      LOOP:  cpu time   19.1052: real time   19.1243

 eigenvalue-minimisations  : 13648
 total energy-change (2. order) :-0.7113379E+01  (-0.7077680E+01)
 number of electron     320.0000000 magnetization
 augmentation part      320.0000000 magnetization

 Free energy of the ion-electron system (eV)
  ---------------------------------------------------
  alpha Z        PSCENC =       762.99496879
  Ewald energy   TEWEN  =    440395.63270309
  -Hartree energ DENC   =   -469217.18774031
  -exchange      EXHF   =         0.00000000
  -V(xc)+E(xc)   XCENC  =      1503.14161354
  PAW double counting   =     25361.10276503   -25213.74141879
  entropy T*S    EENTRO =         0.00000000
  eigenvalues    EBANDS =     -5561.44798803
  atomic energy  EATOM  =     31532.30055140
  Solvation  Ediel_sol  =         0.00000000
  ---------------------------------------------------
  free energy    TOTEN  =      -437.20454527 eV

  energy without entropy =     -437.20454527  energy(sigma->0) =     -437.20454527


--------------------------------------------------------------------------------------------------------




----------------------------------------- Iteration    1(   5)  ---------------------------------------


     EDDAV:  cpu time   17.7811: real time   17.7895
 BZINTS: Fermi energy: -4.315795;320.000000 electrons
         Band energy:***********;  BLOECHL correction:  0.000000
       DOS:  cpu time    0.0080: real time    0.0081
    CHARGE:  cpu time    2.2721: real time    2.2742
    MIXING:  cpu time    0.0080: real time    0.0092
    --------------------------------------------
      LOOP:  cpu time   20.0733: real time   20.0924

 eigenvalue-minimisations  : 12608
 total energy-change (2. order) :-0.1896292E+00  (-0.1893837E+00)
 number of electron     319.9999988 magnetization
 augmentation part       42.2562165 magnetization

 Broyden mixing:
  rms(total) = 0.18552E+02    rms(broyden)= 0.18552E+02
  rms(prec ) = 0.18576E+02
  weight for this iteration     100.00

 Free energy of the ion-electron system (eV)
  ---------------------------------------------------
  alpha Z        PSCENC =       762.99496879
  Ewald energy   TEWEN  =    440395.63270309
  -Hartree energ DENC   =   -469217.18774031
  -exchange      EXHF   =         0.00000000
  -V(xc)+E(xc)   XCENC  =      1503.14161354
  PAW double counting   =     25361.10276503   -25213.74141879
  entropy T*S    EENTRO =         0.00000000
  eigenvalues    EBANDS =     -5561.63761725
  atomic energy  EATOM  =     31532.30055140
  Solvation  Ediel_sol  =         0.00000000
  ---------------------------------------------------
  free energy    TOTEN  =      -437.39417450 eV

  energy without entropy =     -437.39417450  energy(sigma->0) =     -437.39417450


--------------------------------------------------------------------------------------------------------




----------------------------------------- Iteration    1(   6)  ---------------------------------------


    POTLOK:  cpu time    0.2920: real time    0.2925
    SETDIJ:  cpu time    0.0120: real time    0.0131
     EDDAV:  cpu time   16.7810: real time   16.7891
 BZINTS: Fermi energy: -1.214859;320.000000 electrons
         Band energy:***********;  BLOECHL correction:  0.000000
       DOS:  cpu time    0.0120: real time    0.0112
    CHARGE:  cpu time    0.8841: real time    0.8879
    MIXING:  cpu time    0.0120: real time    0.0091
    --------------------------------------------
      LOOP:  cpu time   17.9971: real time   18.0154

 eigenvalue-minimisations  : 11616
 total energy-change (2. order) : 0.6596717E+02  (-0.5552711E+02)
 number of electron     319.9999994 magnetization
 augmentation part       43.5217727 magnetization

 Broyden mixing:
  rms(total) = 0.40865E+01    rms(broyden)= 0.40833E+01
  rms(prec ) = 0.41357E+01
  weight for this iteration     100.00

 eigenvalues of (default mixing * dielectric matrix)
  average eigenvalue GAMMA=   0.9617
  0.9617

 Free energy of the ion-electron system (eV)
  ---------------------------------------------------
  alpha Z        PSCENC =       762.99496879
  Ewald energy   TEWEN  =    440395.63270309
  -Hartree energ DENC   =   -469063.66332372
  -exchange      EXHF   =         0.00000000
  -V(xc)+E(xc)   XCENC  =      1521.13786375
  PAW double counting   =     32394.55668356   -32313.39466593
  entropy T*S    EENTRO =         0.00000000
  eigenvalues    EBANDS =     -5600.99178404
  atomic energy  EATOM  =     31532.30055140
  Solvation  Ediel_sol  =         0.00000000
  ---------------------------------------------------
  free energy    TOTEN  =      -371.42700311 eV

  energy without entropy =     -371.42700311  energy(sigma->0) =     -371.42700311


--------------------------------------------------------------------------------------------------------




----------------------------------------- Iteration    1(   7)  ---------------------------------------


    POTLOK:  cpu time    0.2920: real time    0.2919
    SETDIJ:  cpu time    0.0120: real time    0.0138
     EDDAV:  cpu time   16.6290: real time   16.6388
 BZINTS: Fermi energy: -1.660066;320.000000 electrons
         Band energy:***********;  BLOECHL correction:  0.000000
       DOS:  cpu time    0.0080: real time    0.0084
    CHARGE:  cpu time    0.8881: real time    0.8891
    MIXING:  cpu time    0.0080: real time    0.0090
    --------------------------------------------
      LOOP:  cpu time   17.8411: real time   17.8633

 eigenvalue-minimisations  : 11432
 total energy-change (2. order) : 0.4408574E-02  (-0.2334118E+02)
 number of electron     319.9999991 magnetization
 augmentation part       41.6718735 magnetization

 Broyden mixing:
  rms(total) = 0.64881E+01    rms(broyden)= 0.64873E+01
  rms(prec ) = 0.65076E+01
  weight for this iteration     100.00

 eigenvalues of (default mixing * dielectric matrix)
  average eigenvalue GAMMA=   1.1838
  1.8084  0.5592

 Free energy of the ion-electron system (eV)
  ---------------------------------------------------
  alpha Z        PSCENC =       762.99496879
  Ewald energy   TEWEN  =    440395.63270309
  -Hartree energ DENC   =   -469304.67564526
  -exchange      EXHF   =         0.00000000
  -V(xc)+E(xc)   XCENC  =      1512.15550107
  PAW double counting   =     34814.57786990   -34709.62134065
  entropy T*S    EENTRO =         0.00000000
  eigenvalues    EBANDS =     -5374.78720288
  atomic energy  EATOM  =     31532.30055140
  Solvation  Ediel_sol  =         0.00000000
  ---------------------------------------------------
  free energy    TOTEN  =      -371.42259453 eV

  energy without entropy =     -371.42259453  energy(sigma->0) =     -371.42259453


--------------------------------------------------------------------------------------------------------




----------------------------------------- Iteration    1(   8)  ---------------------------------------


    POTLOK:  cpu time    0.2960: real time    0.2957
    SETDIJ:  cpu time    0.0120: real time    0.0129
     EDDAV:  cpu time   16.6930: real time   16.7015
 BZINTS: Fermi energy: -1.971969;320.000000 electrons
         Band energy:***********;  BLOECHL correction:  0.000000
       DOS:  cpu time    0.0080: real time    0.0081
    CHARGE:  cpu time    0.8921: real time    0.8923
    MIXING:  cpu time    0.0080: real time    0.0090
    --------------------------------------------
      LOOP:  cpu time   17.9131: real time   17.9276

 eigenvalue-minimisations  : 11568
 total energy-change (2. order) : 0.2048870E+02  (-0.3386593E+01)
 number of electron     319.9999991 magnetization
 augmentation part       42.3467438 magnetization

 Broyden mixing:
  rms(total) = 0.95109E+00    rms(broyden)= 0.95077E+00
  rms(prec ) = 0.95573E+00
  weight for this iteration     100.00

 eigenvalues of (default mixing * dielectric matrix)
  average eigenvalue GAMMA=   1.1660
  1.8406  1.0688  0.5886

 Free energy of the ion-electron system (eV)
  ---------------------------------------------------
  alpha Z        PSCENC =       762.99496879
  Ewald energy   TEWEN  =    440395.63270309
  -Hartree energ DENC   =   -469132.68520529
  -exchange      EXHF   =         0.00000000
  -V(xc)+E(xc)   XCENC  =      1512.82079033
  PAW double counting   =     38319.95023074   -38238.42944534
  entropy T*S    EENTRO =         0.00000000
  eigenvalues    EBANDS =     -5503.51848894
  atomic energy  EATOM  =     31532.30055140
  Solvation  Ediel_sol  =         0.00000000
  ---------------------------------------------------
  free energy    TOTEN  =      -350.93389521 eV

  energy without entropy =     -350.93389521  energy(sigma->0) =     -350.93389521


--------------------------------------------------------------------------------------------------------




----------------------------------------- Iteration    1(   9)  ---------------------------------------


    POTLOK:  cpu time    0.2920: real time    0.2926
    SETDIJ:  cpu time    0.0120: real time    0.0120
     EDDAV:  cpu time   18.2011: real time   18.2124
 BZINTS: Fermi energy: -1.923307;320.000000 electrons
         Band energy:***********;  BLOECHL correction:  0.000000
       DOS:  cpu time    0.0080: real time    0.0104
    CHARGE:  cpu time    0.8921: real time    0.8920
    MIXING:  cpu time    0.0120: real time    0.0091
    --------------------------------------------
      LOOP:  cpu time   19.4212: real time   19.4428

 eigenvalue-minimisations  : 13056
 total energy-change (2. order) :-0.5776637E+00  (-0.1319238E+01)
 number of electron     319.9999992 magnetization
 augmentation part       42.4874682 magnetization

 Broyden mixing:
  rms(total) = 0.62460E+00    rms(broyden)= 0.62408E+00
  rms(prec ) = 0.62853E+00
  weight for this iteration     100.00

 eigenvalues of (default mixing * dielectric matrix)
  average eigenvalue GAMMA=   1.0476
  1.9496  0.6583  0.7913  0.7913

 Free energy of the ion-electron system (eV)
  ---------------------------------------------------
  alpha Z        PSCENC =       762.99496879
  Ewald energy   TEWEN  =    440395.63270309
  -Hartree energ DENC   =   -469119.16690261
  -exchange      EXHF   =         0.00000000
  -V(xc)+E(xc)   XCENC  =      1513.56857648
  PAW double counting   =     38663.05916147   -38586.37813790
  entropy T*S    EENTRO =         0.00000000
  eigenvalues    EBANDS =     -5513.52247960
  atomic energy  EATOM  =     31532.30055140
  Solvation  Ediel_sol  =         0.00000000
  ---------------------------------------------------
  free energy    TOTEN  =      -351.51155888 eV

  energy without entropy =     -351.51155888  energy(sigma->0) =     -351.51155888


--------------------------------------------------------------------------------------------------------




----------------------------------------- Iteration    1(  10)  ---------------------------------------


    POTLOK:  cpu time    0.2960: real time    0.2931
    SETDIJ:  cpu time    0.0120: real time    0.0136
     EDDAV:  cpu time   18.5892: real time   18.6003
 BZINTS: Fermi energy: -1.831558;320.000000 electrons
         Band energy:***********;  BLOECHL correction:  0.000000
       DOS:  cpu time    0.0120: real time    0.0105
    CHARGE:  cpu time    0.8881: real time    0.8897
    MIXING:  cpu time    0.0080: real time    0.0091
    --------------------------------------------
      LOOP:  cpu time   19.8052: real time   19.8289

 eigenvalue-minimisations  : 13360
 total energy-change (2. order) : 0.3015040E+00  (-0.8828561E-01)
 number of electron     319.9999992 magnetization
 augmentation part       42.4756125 magnetization

 Broyden mixing:
  rms(total) = 0.33964E+00    rms(broyden)= 0.33960E+00
  rms(prec ) = 0.34014E+00
  weight for this iteration     100.00

 eigenvalues of (default mixing * dielectric matrix)
  average eigenvalue GAMMA=   1.2473
  2.0060  2.0060  0.6147  0.8048  0.8048

 Free energy of the ion-electron system (eV)
  ---------------------------------------------------
  alpha Z        PSCENC =       762.99496879
  Ewald energy   TEWEN  =    440395.63270309
  -Hartree energ DENC   =   -469123.26522651
  -exchange      EXHF   =         0.00000000
  -V(xc)+E(xc)   XCENC  =      1513.08174077
  PAW double counting   =     38722.27080360   -38645.74641155
  entropy T*S    EENTRO =         0.00000000
  eigenvalues    EBANDS =     -5508.47918448
  atomic energy  EATOM  =     31532.30055140
  Solvation  Ediel_sol  =         0.00000000
  ---------------------------------------------------
  free energy    TOTEN  =      -351.21005489 eV

  energy without entropy =     -351.21005489  energy(sigma->0) =     -351.21005489


--------------------------------------------------------------------------------------------------------




----------------------------------------- Iteration    1(  11)  ---------------------------------------


    POTLOK:  cpu time    0.2960: real time    0.2962
    SETDIJ:  cpu time    0.0120: real time    0.0132
     EDDAV:  cpu time   17.3051: real time   17.3169
 BZINTS: Fermi energy: -1.898837;320.000000 electrons
         Band energy:***********;  BLOECHL correction:  0.000000
       DOS:  cpu time    0.0120: real time    0.0103
    CHARGE:  cpu time    0.8961: real time    0.8959
    MIXING:  cpu time    0.0080: real time    0.0092
    --------------------------------------------
      LOOP:  cpu time   18.5332: real time   18.5500

 eigenvalue-minimisations  : 12152
 total energy-change (2. order) : 0.4124605E-02  (-0.4302143E-01)
 number of electron     319.9999992 magnetization
 augmentation part       42.4579733 magnetization

 Broyden mixing:
  rms(total) = 0.10358E+00    rms(broyden)= 0.10348E+00
  rms(prec ) = 0.10415E+00
  weight for this iteration     100.00

 eigenvalues of (default mixing * dielectric matrix)
  average eigenvalue GAMMA=   1.2265
  2.2640  2.2640  0.5989  0.7922  0.7198  0.7198

 Free energy of the ion-electron system (eV)
  ---------------------------------------------------
  alpha Z        PSCENC =       762.99496879
  Ewald energy   TEWEN  =    440395.63270309
  -Hartree energ DENC   =   -469115.01910055
  -exchange      EXHF   =         0.00000000
  -V(xc)+E(xc)   XCENC  =      1512.77877001
  PAW double counting   =     38430.01039304   -38353.24579403
  entropy T*S    EENTRO =         0.00000000
  eigenvalues    EBANDS =     -5516.65842205
  atomic energy  EATOM  =     31532.30055140
  Solvation  Ediel_sol  =         0.00000000
  ---------------------------------------------------
  free energy    TOTEN  =      -351.20593029 eV

  energy without entropy =     -351.20593029  energy(sigma->0) =     -351.20593029


--------------------------------------------------------------------------------------------------------




----------------------------------------- Iteration    1(  12)  ---------------------------------------


    POTLOK:  cpu time    0.2920: real time    0.2938
    SETDIJ:  cpu time    0.0160: real time    0.0151
     EDDAV:  cpu time   18.9772: real time   18.9907
 BZINTS: Fermi energy: -1.903886;320.000000 electrons
         Band energy:***********;  BLOECHL correction:  0.000000
       DOS:  cpu time    0.0120: real time    0.0112
    CHARGE:  cpu time    0.8961: real time    0.8975
    MIXING:  cpu time    0.0120: real time    0.0092
    --------------------------------------------
      LOOP:  cpu time   20.2093: real time   20.2306

 eigenvalue-minimisations  : 14048
 total energy-change (2. order) : 0.1866862E-02  (-0.3380756E-02)
 number of electron     319.9999992 magnetization
 augmentation part       42.4671260 magnetization

 Broyden mixing:
  rms(total) = 0.94282E-01    rms(broyden)= 0.94274E-01
  rms(prec ) = 0.94844E-01
  weight for this iteration     100.00

 eigenvalues of (default mixing * dielectric matrix)
  average eigenvalue GAMMA=   1.1966
  2.2657  2.2657  0.9760  0.8134  0.8134  0.6211  0.6211

 Free energy of the ion-electron system (eV)
  ---------------------------------------------------
  alpha Z        PSCENC =       762.99496879
  Ewald energy   TEWEN  =    440395.63270309
  -Hartree energ DENC   =   -469115.44037205
  -exchange      EXHF   =         0.00000000
  -V(xc)+E(xc)   XCENC  =      1512.70052568
  PAW double counting   =     38410.81959307   -38334.29012720
  entropy T*S    EENTRO =         0.00000000
  eigenvalues    EBANDS =     -5515.92190622
  atomic energy  EATOM  =     31532.30055140
  Solvation  Ediel_sol  =         0.00000000
  ---------------------------------------------------
  free energy    TOTEN  =      -351.20406343 eV

  energy without entropy =     -351.20406343  energy(sigma->0) =     -351.20406343


--------------------------------------------------------------------------------------------------------




----------------------------------------- Iteration    1(  13)  ---------------------------------------


    POTLOK:  cpu time    0.2920: real time    0.2947
    SETDIJ:  cpu time    0.0160: real time    0.0146
     EDDAV:  cpu time   17.5611: real time   17.5707
 BZINTS: Fermi energy: -1.908360;320.000000 electrons
         Band energy:***********;  BLOECHL correction:  0.000000
       DOS:  cpu time    0.0080: real time    0.0097
    CHARGE:  cpu time    0.8961: real time    0.8970
    MIXING:  cpu time    0.0120: real time    0.0093
    --------------------------------------------
      LOOP:  cpu time   18.7892: real time   18.8062

 eigenvalue-minimisations  : 12672
 total energy-change (2. order) : 0.4937384E-02  (-0.1337389E-02)
 number of electron     319.9999992 magnetization
 augmentation part       42.4690275 magnetization

 Broyden mixing:
  rms(total) = 0.50428E-01    rms(broyden)= 0.50422E-01
  rms(prec ) = 0.50789E-01
  weight for this iteration     100.00

 eigenvalues of (default mixing * dielectric matrix)
  average eigenvalue GAMMA=   1.1202
  2.2461  2.2461  1.0320  0.8721  0.8721  0.5751  0.5592  0.5592

 Free energy of the ion-electron system (eV)
  ---------------------------------------------------
  alpha Z        PSCENC =       762.99496879
  Ewald energy   TEWEN  =    440395.63270309
  -Hartree energ DENC   =   -469115.36466853
  -exchange      EXHF   =         0.00000000
  -V(xc)+E(xc)   XCENC  =      1512.76867126
  PAW double counting   =     38454.08436800   -38377.73281443
  entropy T*S    EENTRO =         0.00000000
  eigenvalues    EBANDS =     -5515.88290563
  atomic energy  EATOM  =     31532.30055140
  Solvation  Ediel_sol  =         0.00000000
  ---------------------------------------------------
  free energy    TOTEN  =      -351.19912604 eV

  energy without entropy =     -351.19912604  energy(sigma->0) =     -351.19912604


--------------------------------------------------------------------------------------------------------




----------------------------------------- Iteration    1(  14)  ---------------------------------------


    POTLOK:  cpu time    0.2920: real time    0.2937
    SETDIJ:  cpu time    0.0160: real time    0.0144
     EDDAV:  cpu time   17.7091: real time   17.7217
 BZINTS: Fermi energy: -1.905444;320.000000 electrons
         Band energy:***********;  BLOECHL correction:  0.000000
       DOS:  cpu time    0.0120: real time    0.0104
    CHARGE:  cpu time    0.8881: real time    0.8906
    MIXING:  cpu time    0.0080: real time    0.0093
    --------------------------------------------
      LOOP:  cpu time   18.9332: real time   18.9535

 eigenvalue-minimisations  : 12736
 total energy-change (2. order) : 0.1309503E-02  (-0.2633820E-03)
 number of electron     319.9999992 magnetization
 augmentation part       42.4680030 magnetization

 Broyden mixing:
  rms(total) = 0.32474E-01    rms(broyden)= 0.32473E-01
  rms(prec ) = 0.32705E-01
  weight for this iteration     100.00

 eigenvalues of (default mixing * dielectric matrix)
  average eigenvalue GAMMA=   1.1465
  2.3281  2.0038  1.2237  1.0446  1.0446  0.7577  0.7577  0.6035  0.5545

 Free energy of the ion-electron system (eV)
  ---------------------------------------------------
  alpha Z        PSCENC =       762.99496879
  Ewald energy   TEWEN  =    440395.63270309
  -Hartree energ DENC   =   -469116.59519917
  -exchange      EXHF   =         0.00000000
  -V(xc)+E(xc)   XCENC  =      1512.80622057
  PAW double counting   =     38465.85616534   -38389.53011013
  entropy T*S    EENTRO =         0.00000000
  eigenvalues    EBANDS =     -5514.66311644
  atomic energy  EATOM  =     31532.30055140
  Solvation  Ediel_sol  =         0.00000000
  ---------------------------------------------------
  free energy    TOTEN  =      -351.19781654 eV

  energy without entropy =     -351.19781654  energy(sigma->0) =     -351.19781654


--------------------------------------------------------------------------------------------------------




----------------------------------------- Iteration    1(  15)  ---------------------------------------


    POTLOK:  cpu time    0.2960: real time    0.2950
    SETDIJ:  cpu time    0.0120: real time    0.0139
     EDDAV:  cpu time   17.0611: real time   17.0738
 BZINTS: Fermi energy: -1.903298;320.000000 electrons
         Band energy:***********;  BLOECHL correction:  0.000000
       DOS:  cpu time    0.0120: real time    0.0101
    CHARGE:  cpu time    0.8961: real time    0.8966
    MIXING:  cpu time    0.0080: real time    0.0094
    --------------------------------------------
      LOOP:  cpu time   18.2891: real time   18.3093

 eigenvalue-minimisations  : 12008
 total energy-change (2. order) : 0.8266293E-03  (-0.3108760E-03)
 number of electron     319.9999992 magnetization
 augmentation part       42.4664829 magnetization

 Broyden mixing:
  rms(total) = 0.92127E-02    rms(broyden)= 0.92016E-02
  rms(prec ) = 0.92826E-02
  weight for this iteration     100.00

 eigenvalues of (default mixing * dielectric matrix)
  average eigenvalue GAMMA=   1.1390
  2.4271  1.8438  1.8438  0.9512  0.8206  0.8206  0.7808  0.6093  0.6467  0.6467

 Free energy of the ion-electron system (eV)
  ---------------------------------------------------
  alpha Z        PSCENC =       762.99496879
  Ewald energy   TEWEN  =    440395.63270309
  -Hartree energ DENC   =   -469117.74724771
  -exchange      EXHF   =         0.00000000
  -V(xc)+E(xc)   XCENC  =      1512.86916064
  PAW double counting   =     38480.73220526   -38404.42711533
  entropy T*S    EENTRO =         0.00000000
  eigenvalues    EBANDS =     -5513.55221606
  atomic energy  EATOM  =     31532.30055140
  Solvation  Ediel_sol  =         0.00000000
  ---------------------------------------------------
  free energy    TOTEN  =      -351.19698991 eV

  energy without entropy =     -351.19698991  energy(sigma->0) =     -351.19698991


--------------------------------------------------------------------------------------------------------




----------------------------------------- Iteration    1(  16)  ---------------------------------------


    POTLOK:  cpu time    0.2960: real time    0.2945
    SETDIJ:  cpu time    0.0120: real time    0.0128
     EDDAV:  cpu time   19.3092: real time   19.3217
 BZINTS: Fermi energy: -1.904516;320.000000 electrons
         Band energy:***********;  BLOECHL correction:  0.000000
       DOS:  cpu time    0.0120: real time    0.0109
    CHARGE:  cpu time    0.8921: real time    0.8942
    MIXING:  cpu time    0.0080: real time    0.0095
    --------------------------------------------
      LOOP:  cpu time   20.5333: real time   20.5578

 eigenvalue-minimisations  : 14336
 total energy-change (2. order) :-0.8483286E-05  (-0.5687294E-04)
 number of electron     319.9999992 magnetization
 augmentation part       42.4671646 magnetization

 Broyden mixing:
  rms(total) = 0.21363E-02    rms(broyden)= 0.21255E-02
  rms(prec ) = 0.21467E-02
  weight for this iteration     100.00

 eigenvalues of (default mixing * dielectric matrix)
  average eigenvalue GAMMA=   1.1377
  2.4507  1.9373  1.9373  0.9810  0.9810  0.8122  0.8122  0.8217  0.6102  0.5856
  0.5856

 Free energy of the ion-electron system (eV)
  ---------------------------------------------------
  alpha Z        PSCENC =       762.99496879
  Ewald energy   TEWEN  =    440395.63270309
  -Hartree energ DENC   =   -469117.89960754
  -exchange      EXHF   =         0.00000000
  -V(xc)+E(xc)   XCENC  =      1512.88831459
  PAW double counting   =     38484.09184377   -38407.78799364
  entropy T*S    EENTRO =         0.00000000
  eigenvalues    EBANDS =     -5513.41777887
  atomic energy  EATOM  =     31532.30055140
  Solvation  Ediel_sol  =         0.00000000
  ---------------------------------------------------
  free energy    TOTEN  =      -351.19699839 eV

  energy without entropy =     -351.19699839  energy(sigma->0) =     -351.19699839


--------------------------------------------------------------------------------------------------------




----------------------------------------- Iteration    1(  17)  ---------------------------------------


    POTLOK:  cpu time    0.2960: real time    0.2942
    SETDIJ:  cpu time    0.0120: real time    0.0130
     EDDAV:  cpu time   17.2051: real time   17.2143
 BZINTS: Fermi energy: -1.905275;320.000000 electrons
         Band energy:***********;  BLOECHL correction:  0.000000
       DOS:  cpu time    0.0080: real time    0.0103
    CHARGE:  cpu time    0.8921: real time    0.8915
    MIXING:  cpu time    0.0120: real time    0.0096
    --------------------------------------------
      LOOP:  cpu time   18.4292: real time   18.4464

 eigenvalue-minimisations  : 12032
 total energy-change (2. order) :-0.3763366E-04  (-0.4925335E-05)
 number of electron     319.9999992 magnetization
 augmentation part       42.4671382 magnetization

 Broyden mixing:
  rms(total) = 0.14594E-02    rms(broyden)= 0.14577E-02
  rms(prec ) = 0.14724E-02
  weight for this iteration     100.00

 eigenvalues of (default mixing * dielectric matrix)
  average eigenvalue GAMMA=   1.1374
  2.4719  1.9452  1.9452  1.2258  1.2258  0.7986  0.7986  0.7403  0.7403  0.6207
  0.5684  0.5684

 Free energy of the ion-electron system (eV)
  ---------------------------------------------------
  alpha Z        PSCENC =       762.99496879
  Ewald energy   TEWEN  =    440395.63270309
  -Hartree energ DENC   =   -469118.03919925
  -exchange      EXHF   =         0.00000000
  -V(xc)+E(xc)   XCENC  =      1512.89579459
  PAW double counting   =     38484.50161038   -38408.19185976
  entropy T*S    EENTRO =         0.00000000
  eigenvalues    EBANDS =     -5513.29160527
  atomic energy  EATOM  =     31532.30055140
  Solvation  Ediel_sol  =         0.00000000
  ---------------------------------------------------
  free energy    TOTEN  =      -351.19703603 eV

  energy without entropy =     -351.19703603  energy(sigma->0) =     -351.19703603


--------------------------------------------------------------------------------------------------------




----------------------------------------- Iteration    1(  18)  ---------------------------------------


    POTLOK:  cpu time    0.2960: real time    0.2952
    SETDIJ:  cpu time    0.0080: real time    0.0083
     EDDAV:  cpu time   16.0090: real time   16.0177
 BZINTS: Fermi energy: -1.906245;320.000000 electrons
         Band energy:***********;  BLOECHL correction:  0.000000
       DOS:  cpu time    0.0080: real time    0.0101
    CHARGE:  cpu time    0.8921: real time    0.8915
    MIXING:  cpu time    0.0120: real time    0.0096
    --------------------------------------------
      LOOP:  cpu time   17.2251: real time   18.3851

 eigenvalue-minimisations  : 11080
 total energy-change (2. order) :-0.2672953E-04  (-0.8216922E-06)
 number of electron     319.9999992 magnetization
 augmentation part       42.4671832 magnetization

 Broyden mixing:
  rms(total) = 0.10731E-02    rms(broyden)= 0.10730E-02
  rms(prec ) = 0.10870E-02
  weight for this iteration     100.00

 eigenvalues of (default mixing * dielectric matrix)
  average eigenvalue GAMMA=   1.1493
  2.5247  1.9168  1.9168  1.9388  0.8026  0.8026  0.8930  0.8812  0.8812  0.6325
  0.6049  0.6049  0.5407

 Free energy of the ion-electron system (eV)
  ---------------------------------------------------
  alpha Z        PSCENC =       762.99496879
  Ewald energy   TEWEN  =    440395.63270309
  -Hartree energ DENC   =   -469118.03530563
  -exchange      EXHF   =         0.00000000
  -V(xc)+E(xc)   XCENC  =      1512.89877774
  PAW double counting   =     38484.08200608   -38407.76551625
  entropy T*S    EENTRO =         0.00000000
  eigenvalues    EBANDS =     -5513.30524798
  atomic energy  EATOM  =     31532.30055140
  Solvation  Ediel_sol  =         0.00000000
  ---------------------------------------------------
  free energy    TOTEN  =      -351.19706276 eV

  energy without entropy =     -351.19706276  energy(sigma->0) =     -351.19706276


--------------------------------------------------------------------------------------------------------




----------------------------------------- Iteration    1(  19)  ---------------------------------------


    POTLOK:  cpu time    0.2960: real time    0.2954
    SETDIJ:  cpu time    0.0160: real time    0.0148
     EDDAV:  cpu time   14.6649: real time   14.6726
 BZINTS: Fermi energy: -1.907304;320.000000 electrons
         Band energy:***********;  BLOECHL correction:  0.000000
       DOS:  cpu time    0.0120: real time    0.0117
    CHARGE:  cpu time    0.8921: real time    0.8933
    MIXING:  cpu time    0.0080: real time    0.0097
    --------------------------------------------
      LOOP:  cpu time   15.8890: real time   15.9154

 eigenvalue-minimisations  :  9656
 total energy-change (2. order) :-0.1862583E-04  (-0.3977236E-06)
 number of electron     319.9999992 magnetization
 augmentation part       42.4671566 magnetization

 Broyden mixing:
  rms(total) = 0.52286E-03    rms(broyden)= 0.52268E-03
  rms(prec ) = 0.53379E-03
  weight for this iteration     100.00

 eigenvalues of (default mixing * dielectric matrix)
  average eigenvalue GAMMA=   1.1595
  2.5948  2.2589  1.8821  1.8821  1.0402  1.0402  0.8461  0.8461  0.7750  0.7750
  0.6095  0.5756  0.5756  0.5321

 Free energy of the ion-electron system (eV)
  ---------------------------------------------------
  alpha Z        PSCENC =       762.99496879
  Ewald energy   TEWEN  =    440395.63270309
  -Hartree energ DENC   =   -469117.98132165
  -exchange      EXHF   =         0.00000000
  -V(xc)+E(xc)   XCENC  =      1512.90036404
  PAW double counting   =     38483.82308085   -38407.50164019
  entropy T*S    EENTRO =         0.00000000
  eigenvalues    EBANDS =     -5513.36578771
  atomic energy  EATOM  =     31532.30055140
  Solvation  Ediel_sol  =         0.00000000
  ---------------------------------------------------
  free energy    TOTEN  =      -351.19708138 eV

  energy without entropy =     -351.19708138  energy(sigma->0) =     -351.19708138


--------------------------------------------------------------------------------------------------------




----------------------------------------- Iteration    1(  20)  ---------------------------------------


    POTLOK:  cpu time    0.2960: real time    0.2962
    SETDIJ:  cpu time    0.0080: real time    0.0088
     EDDAV:  cpu time   11.9687: real time   11.9745
 BZINTS: Fermi energy: -1.908388;320.000000 electrons
         Band energy:***********;  BLOECHL correction:  0.000000
       DOS:  cpu time    0.0080: real time    0.0107
    CHARGE:  cpu time    0.8921: real time    0.8905
    MIXING:  cpu time    0.0080: real time    0.0098
    --------------------------------------------
      LOOP:  cpu time   13.1848: real time   14.0526

 eigenvalue-minimisations  :  6896
 total energy-change (2. order) :-0.1253661E-04  (-0.1443299E-06)
 number of electron     319.9999992 magnetization
 augmentation part       42.4671164 magnetization

 Broyden mixing:
  rms(total) = 0.25888E-03    rms(broyden)= 0.25876E-03
  rms(prec ) = 0.26894E-03
  weight for this iteration     100.00

 eigenvalues of (default mixing * dielectric matrix)
  average eigenvalue GAMMA=   1.1590
  2.6337  2.3311  1.8401  1.8401  1.2192  1.2192  0.8658  0.8658  0.7827  0.7827
  0.6181  0.6181  0.6121  0.6121  0.5448

 Free energy of the ion-electron system (eV)
  ---------------------------------------------------
  alpha Z        PSCENC =       762.99496879
  Ewald energy   TEWEN  =    440395.63270309
  -Hartree energ DENC   =   -469117.92682350
  -exchange      EXHF   =         0.00000000
  -V(xc)+E(xc)   XCENC  =      1512.90088387
  PAW double counting   =     38483.72520619   -38407.40174014
  entropy T*S    EENTRO =         0.00000000
  eigenvalues    EBANDS =     -5513.42284363
  atomic energy  EATOM  =     31532.30055140
  Solvation  Ediel_sol  =         0.00000000
  ---------------------------------------------------
  free energy    TOTEN  =      -351.19709392 eV

  energy without entropy =     -351.19709392  energy(sigma->0) =     -351.19709392


--------------------------------------------------------------------------------------------------------




----------------------------------------- Iteration    1(  21)  ---------------------------------------


    POTLOK:  cpu time    0.2960: real time    0.2981
    SETDIJ:  cpu time    0.0160: real time    0.0144
     EDDAV:  cpu time   11.5647: real time   11.5729
 BZINTS: Fermi energy: -1.909435;320.000000 electrons
         Band energy:***********;  BLOECHL correction:  0.000000
       DOS:  cpu time    0.0120: real time    0.0096
    CHARGE:  cpu time    0.8921: real time    0.8923
    MIXING:  cpu time    0.0080: real time    0.0099
    --------------------------------------------
      LOOP:  cpu time   12.7928: real time   12.8063

 eigenvalue-minimisations  :  6536
 total energy-change (2. order) :-0.8668576E-05  (-0.6585906E-07)
 number of electron     319.9999992 magnetization
 augmentation part       42.4671114 magnetization

 Broyden mixing:
  rms(total) = 0.12639E-03    rms(broyden)= 0.12633E-03
  rms(prec ) = 0.13915E-03
  weight for this iteration     100.00

 eigenvalues of (default mixing * dielectric matrix)
  average eigenvalue GAMMA=   1.1828
  2.7079  2.4074  1.8410  1.8410  1.8679  1.0534  0.8616  0.8616  0.8360  0.8360
  0.7268  0.7268  0.6186  0.5996  0.5996  0.5401

 Free energy of the ion-electron system (eV)
  ---------------------------------------------------
  alpha Z        PSCENC =       762.99496879
  Ewald energy   TEWEN  =    440395.63270309
  -Hartree energ DENC   =   -469117.86753700
  -exchange      EXHF   =         0.00000000
  -V(xc)+E(xc)   XCENC  =      1512.90092853
  PAW double counting   =     38483.68049203   -38407.35675291
  entropy T*S    EENTRO =         0.00000000
  eigenvalues    EBANDS =     -5513.48245652
  atomic energy  EATOM  =     31532.30055140
  Solvation  Ediel_sol  =         0.00000000
  ---------------------------------------------------
  free energy    TOTEN  =      -351.19710259 eV

  energy without entropy =     -351.19710259  energy(sigma->0) =     -351.19710259


--------------------------------------------------------------------------------------------------------




----------------------------------------- Iteration    1(  22)  ---------------------------------------


    POTLOK:  cpu time    0.2960: real time    0.2940
    SETDIJ:  cpu time    0.0160: real time    0.0167
     EDDAV:  cpu time   11.9047: real time   11.9136
 BZINTS: Fermi energy: -1.910467;320.000000 electrons
         Band energy:***********;  BLOECHL correction:  0.000000
       DOS:  cpu time    0.0120: real time    0.0105
    CHARGE:  cpu time    0.8961: real time    0.8961
    MIXING:  cpu time    0.0080: real time    0.0099
    --------------------------------------------
      LOOP:  cpu time   13.1368: real time   13.1525

 eigenvalue-minimisations  :  6864
 total energy-change (2. order) :-0.9736803E-05  (-0.5005101E-07)
 number of electron     319.9999992 magnetization
 augmentation part       42.4670994 magnetization

 Broyden mixing:
  rms(total) = 0.78200E-04    rms(broyden)= 0.78157E-04
  rms(prec ) = 0.90307E-04
  weight for this iteration     100.00

 eigenvalues of (default mixing * dielectric matrix)
  average eigenvalue GAMMA=   1.2041
  3.0105  2.4463  2.0766  1.8760  1.8760  1.0871  0.8984  0.8984  0.9219  0.8041
  0.8041  0.7173  0.7173  0.6118  0.5918  0.5918  0.5398

 Free energy of the ion-electron system (eV)
  ---------------------------------------------------
  alpha Z        PSCENC =       762.99496879
  Ewald energy   TEWEN  =    440395.63270309
  -Hartree energ DENC   =   -469117.78842249
  -exchange      EXHF   =         0.00000000
  -V(xc)+E(xc)   XCENC  =      1512.90097964
  PAW double counting   =     38483.64686895   -38407.32314379
  entropy T*S    EENTRO =         0.00000000
  eigenvalues    EBANDS =     -5513.56161792
  atomic energy  EATOM  =     31532.30055140
  Solvation  Ediel_sol  =         0.00000000
  ---------------------------------------------------
  free energy    TOTEN  =      -351.19711233 eV

  energy without entropy =     -351.19711233  energy(sigma->0) =     -351.19711233


--------------------------------------------------------------------------------------------------------




----------------------------------------- Iteration    1(  23)  ---------------------------------------


    POTLOK:  cpu time    0.2920: real time    0.2936
    SETDIJ:  cpu time    0.0200: real time    0.0165
     EDDAV:  cpu time   11.5887: real time   11.5969
 BZINTS: Fermi energy: -1.911461;320.000000 electrons
         Band energy:***********;  BLOECHL correction:  0.000000
       DOS:  cpu time    0.0080: real time    0.0098
    CHARGE:  cpu time    0.8921: real time    0.8908
    MIXING:  cpu time    0.0080: real time    0.0101
    --------------------------------------------
      LOOP:  cpu time   12.8128: real time   12.8297

 eigenvalue-minimisations  :  6552
 total energy-change (2. order) :-0.7432332E-05  (-0.3302715E-07)
 number of electron     319.9999992 magnetization
 augmentation part       42.4671028 magnetization

 Broyden mixing:
  rms(total) = 0.81535E-04    rms(broyden)= 0.81525E-04
  rms(prec ) = 0.88668E-04
  weight for this iteration     100.00

 eigenvalues of (default mixing * dielectric matrix)
  average eigenvalue GAMMA=   1.2092
  3.1938  2.4331  2.0450  2.0450  1.5633  1.5633  0.9623  0.9623  0.9538  0.8110
  0.8110  0.7660  0.7660  0.5899  0.5899  0.6089  0.5505  0.5505

 Free energy of the ion-electron system (eV)
  ---------------------------------------------------
  alpha Z        PSCENC =       762.99496879
  Ewald energy   TEWEN  =    440395.63270309
  -Hartree energ DENC   =   -469117.71805332
  -exchange      EXHF   =         0.00000000
  -V(xc)+E(xc)   XCENC  =      1512.90102727
  PAW double counting   =     38483.62986705   -38407.30631293
  entropy T*S    EENTRO =         0.00000000
  eigenvalues    EBANDS =     -5513.63187111
  atomic energy  EATOM  =     31532.30055140
  Solvation  Ediel_sol  =         0.00000000
  ---------------------------------------------------
  free energy    TOTEN  =      -351.19711976 eV

  energy without entropy =     -351.19711976  energy(sigma->0) =     -351.19711976


--------------------------------------------------------------------------------------------------------




----------------------------------------- Iteration    1(  24)  ---------------------------------------


    POTLOK:  cpu time    0.2960: real time    0.2963
    SETDIJ:  cpu time    0.0160: real time    0.0146
     EDDAV:  cpu time   11.5927: real time   11.5993
 BZINTS: Fermi energy: -1.912366;320.000000 electrons
[...]
  0.000  -0.000  -0.000   0.000   0.010   0.000  -0.000   0.000
 -0.010   0.005  -0.005   0.011   0.000   0.013  -0.001  -0.000
  0.002  -0.002   0.010  -0.055   0.000  -0.008   0.039  -0.000
  0.000   0.000   0.000  -0.000  -0.002  -0.000   0.000   0.012
 -0.005   0.003   0.017   0.001  -0.000  -0.013  -0.000   0.000
 total augmentation occupancy for first ion, spin component:           1
  1.992  -0.057  -0.001  -0.002  -0.000  -0.000  -0.000   0.000  -0.000   0.041  -0.070  -0.000   0.032   0.000  -0.037   0.067
 -0.057   1.756  -0.018  -0.020  -0.000   0.104   0.150   0.000  -0.000   0.398  -0.283  -0.000   0.270   0.000  -0.459   0.453
 -0.001  -0.018   1.995   0.000  -0.000  -0.070  -0.000   0.000  -0.000   0.025   0.065   0.000   0.101   0.000  -0.024  -0.050
 -0.002  -0.020   0.000   1.994  -0.000   0.000  -0.058   0.000  -0.000   0.018  -0.189  -0.000   0.004   0.000  -0.018   0.134
 -0.000  -0.000  -0.000  -0.000   1.997   0.000   0.000  -0.071  -0.004   0.000   0.000   0.020  -0.000   0.009  -0.000  -0.000
 -0.000   0.104  -0.070   0.000   0.000   0.176  -0.009  -0.000  -0.000   0.152   0.289  -0.000   0.498  -0.000  -0.130  -0.330
 -0.000   0.150  -0.000  -0.058   0.000  -0.009   0.166  -0.000  -0.000   0.113  -0.908  -0.000   0.059   0.000  -0.109   1.077
  0.000   0.000   0.000   0.000  -0.071  -0.000  -0.000   0.166   0.158  -0.000   0.000   0.315   0.000  -0.161   0.000  -0.000
 -0.000  -0.000  -0.000  -0.000  -0.004  -0.000  -0.000   0.158   1.790   0.000  -0.000   0.871   0.000  -2.494  -0.000   0.000
  0.041   0.398   0.025   0.018   0.000   0.152   0.113  -0.000   0.000   2.578  -1.273   0.000   2.000  -0.000  -3.540   1.330
 -0.070  -0.283   0.065  -0.189   0.000   0.289  -0.908   0.000  -0.000  -1.273  17.983  -0.000   1.730  -0.000   1.325 -19.557
 -0.000  -0.000   0.000  -0.000   0.020  -0.000  -0.000   0.315   0.871   0.000  -0.000   3.613  -0.000  -0.903  -0.000  -0.000
  0.032   0.270   0.101   0.004  -0.000   0.498   0.059   0.000   0.000   2.000   1.730  -0.000  14.191  -0.000  -2.160  -1.847
  0.000   0.000   0.000   0.000   0.009  -0.000   0.000  -0.161  -2.494  -0.000  -0.000  -0.903  -0.000   3.744   0.000   0.000
 -0.037  -0.459  -0.024  -0.018  -0.000  -0.130  -0.109   0.000  -0.000  -3.540   1.325  -0.000  -2.160   0.000   5.115  -1.400
  0.067   0.453  -0.050   0.134  -0.000  -0.330   1.077  -0.000   0.000   1.330 -19.557  -0.000  -1.847   0.000  -1.400  21.846
  0.000   0.000  -0.000   0.000  -0.010   0.000   0.000  -0.312  -0.903  -0.000   0.000  -4.572   0.000   0.905   0.000   0.000
 -0.030  -0.338  -0.069   0.002   0.000  -0.587  -0.078  -0.000  -0.000  -2.157  -1.848   0.000 -15.802   0.000   2.316   1.970


------------------------ aborting loop because EDIFF is reached ----------------------------------------





 total charge

# of ion     s       p       d       tot
----------------------------------------
  1        2.426   6.366   3.903  12.695
  2        2.426   6.366   3.903  12.695
  3        2.426   6.366   3.903  12.695
  4        2.426   6.366   3.903  12.695
  5        2.426   6.366   3.907  12.700
  6        2.426   6.366   3.907  12.700
  7        2.426   6.366   3.903  12.695
  8        2.426   6.366   3.903  12.695
  9        2.426   6.366   3.903  12.695
 10        2.426   6.366   3.903  12.695
 11        1.565   3.488   0.000   5.053
 12        1.581   3.443   0.000   5.024
 13        1.614   3.344   0.000   4.957
 14        1.614   3.344   0.000   4.957
 15        1.581   3.443   0.000   5.024
 16        1.565   3.488   0.000   5.053
 17        1.565   3.488   0.000   5.053
 18        1.581   3.443   0.000   5.024
 19        1.614   3.344   0.000   4.957
 20        1.614   3.344   0.000   4.957
 21        1.581   3.443   0.000   5.024
 22        1.565   3.488   0.000   5.053
 23        1.565   3.488   0.000   5.054
 24        1.581   3.444   0.000   5.025
 25        1.614   3.337   0.000   4.951
 26        1.614   3.337   0.000   4.951
 27        1.581   3.444   0.000   5.025
 28        1.565   3.488   0.000   5.054
 29        1.565   3.488   0.000   5.053
 30        1.581   3.443   0.000   5.024
 31        1.614   3.344   0.000   4.957
 32        1.614   3.344   0.000   4.957
 33        1.581   3.443   0.000   5.024
 34        1.565   3.488   0.000   5.053
 35        1.565   3.488   0.000   5.053
 36        1.581   3.443   0.000   5.024
 37        1.614   3.344   0.000   4.957
 38        1.614   3.344   0.000   4.957
 39        1.581   3.443   0.000   5.024
 40        1.565   3.488   0.000   5.053
------------------------------------------------
tot       71.859 166.395  39.035 277.290

    CHARGE:  cpu time    0.8881: real time    0.8905
    FORLOC:  cpu time    0.0640: real time    0.0615
    FORNL :  cpu time    5.6084: real time    5.6121
    STRESS:  cpu time    4.7323: real time    4.7363
    FORCOR:  cpu time    0.3560: real time    0.3564
    FORHAR:  cpu time    0.1240: real time    0.1249
    MIXING:  cpu time    0.0120: real time    0.0104
    OFIELD:  cpu time    0.0000: real time    0.0001

  FORCE on cell =-STRESS in cart. coord.  units (eV):
  Direction    XX          YY          ZZ          XY          YZ          ZX
  --------------------------------------------------------------------------------------
  Alpha Z   762.99497   762.99497   762.99497
  Ewald  454526.62846454375.15451************     0.00000   -28.26178    -0.00000
  Hartree463004.60239462788.92158************    -0.00000    -1.91541     0.00000
  E(xc)   -1540.04714 -1538.70636 -1538.89414    -0.00000    -0.09436    -0.00000
  Local  ************************919878.19401    -0.00000    31.09374    -0.00000
  n-local  -898.67439  -898.56702  -898.84768    -0.00000    -2.18538    -0.00000
  augment   527.59809   533.82189   534.72116    -0.00000     0.11111    -0.00000
  Kinetic  6362.40054  6428.41687  6443.78247     0.00000     1.26735     0.00000
  Fock        0.00000     0.00000     0.00000     0.00000     0.00000     0.00000
  -------------------------------------------------------------------------------------
  Total      -0.25608    -0.16179    -0.27561     0.00000     0.01528     0.00000
  in kB      -0.48643    -0.30733    -0.52353     0.00000     0.02903     0.00000
  external pressure =       -0.44 kB  Pullay stress =        0.00 kB


 VOLUME and BASIS-vectors are now :
 -----------------------------------------------------------------------------
  energy-cutoff  :      500.00
  volume of cell :      843.46
      direct lattice vectors                 reciprocal lattice vectors
     3.684399605  0.000000000  0.000000000     0.271414642  0.000000000  0.000000000
     0.000000000  3.866507292  0.000000000     0.000000000  0.258631350  0.000000000
     0.000000000  0.000000000 59.207592011     0.000000000  0.000000000  0.016889726

  length of vectors
     3.684399605  3.866507292 59.207592011     0.271414642  0.258631350  0.016889726


 FORCES acting on ions
    electron-ion (+dipol)            ewald-force                    non-local-force                 convergence-correction
 -----------------------------------------------------------------------------------------------
   0.124E-06 0.277E+02 -.114E+04   -.190E-13 -.237E+02 0.115E+04   0.180E-07 -.398E+01 -.451E+01   -.133E-06 0.675E-05 0.150E-03
   -.119E-07 0.277E+02 -.313E+04   -.103E-12 -.237E+02 0.312E+04   -.442E-07 -.398E+01 0.451E+01   -.776E-07 0.120E-04 -.197E-03
   -.582E-07 -.277E+02 -.541E+04   -.510E-13 0.237E+02 0.541E+04   -.923E-08 0.398E+01 -.451E+01   0.675E-07 -.322E-04 0.284E-04
   -.592E-07 -.277E+02 -.740E+04   0.272E-13 0.237E+02 0.739E+04   0.349E-08 0.398E+01 0.452E+01   0.256E-07 -.320E-04 -.119E-03
   0.616E-07 0.256E+02 -.966E+04   0.102E-12 -.217E+02 0.966E+04   0.409E-07 -.399E+01 -.446E+01   -.404E-07 0.700E-05 0.378E-03
   -.241E-07 -.256E+02 0.966E+04   0.452E-13 0.217E+02 -.966E+04   -.271E-07 0.399E+01 0.446E+01   0.507E-07 0.191E-05 -.199E-03
   -.365E-07 0.277E+02 0.740E+04   0.822E-13 -.237E+02 -.739E+04   -.156E-07 -.398E+01 -.452E+01   0.154E-07 0.159E-04 0.157E-03
   0.960E-07 0.277E+02 0.541E+04   -.152E-12 -.237E+02 -.541E+04   -.325E-08 -.398E+01 0.451E+01   -.681E-07 0.150E-04 -.480E-04
   0.129E-06 -.277E+02 0.313E+04   -.683E-14 0.237E+02 -.312E+04   0.438E-08 0.398E+01 -.451E+01   -.611E-07 0.226E-05 0.364E-04
   -.119E-06 -.277E+02 0.114E+04   -.260E-13 0.237E+02 -.115E+04   -.269E-07 0.398E+01 0.451E+01   0.685E-07 -.373E-05 -.163E-03
   0.428E-07 0.382E+02 -.342E+03   0.533E-13 -.433E+02 0.337E+03   -.460E-07 0.507E+01 0.519E+01   -.609E-08 0.404E-05 0.236E-04
   -.601E-07 -.105E+03 -.405E+03   0.197E-14 0.118E+03 0.401E+03   0.672E-07 -.134E+02 0.432E+01   -.237E-07 0.168E-05 0.239E-04
   -.497E-08 0.235E+02 -.116E+04   0.155E-13 -.263E+02 0.119E+04   -.325E-08 0.279E+01 -.340E+02   -.114E-07 -.286E-06 0.200E-04
   -.391E-07 0.235E+02 -.671E+03   -.653E-14 -.263E+02 0.637E+03   -.187E-07 0.279E+01 0.340E+02   0.727E-07 -.489E-05 -.636E-04
   -.762E-07 -.105E+03 -.142E+04   -.437E-14 0.118E+03 0.143E+04   -.213E-07 -.134E+02 -.432E+01   0.765E-07 0.228E-04 -.220E-04
   -.555E-07 0.382E+02 -.149E+04   0.449E-13 -.433E+02 0.149E+04   -.220E-07 0.507E+01 -.519E+01   0.102E-06 -.420E-05 -.278E-04
   0.376E-07 -.382E+02 -.217E+04   0.344E-13 0.433E+02 0.217E+04   0.177E-07 -.507E+01 0.519E+01   -.158E-07 -.111E-05 -.151E-05
   0.668E-08 0.105E+03 -.223E+04   0.415E-13 -.118E+03 0.223E+04   0.218E-07 0.134E+02 0.432E+01   -.200E-07 -.101E-04 -.156E-04
   0.101E-06 -.235E+02 -.299E+04   -.931E-14 0.263E+02 0.302E+04   0.181E-07 -.279E+01 -.340E+02   -.115E-06 0.497E-06 -.764E-05
   -.635E-07 -.235E+02 -.250E+04   -.223E-13 0.263E+02 0.247E+04   -.930E-07 -.279E+01 0.340E+02   0.147E-06 0.400E-05 -.914E-04
   -.667E-08 0.105E+03 -.325E+04   -.442E-13 -.118E+03 0.326E+04   0.101E-07 0.134E+02 -.430E+01   -.128E-07 -.175E-04 0.292E-06
   0.244E-07 -.382E+02 -.332E+04   -.396E-13 0.433E+02 0.332E+04   -.244E-07 -.507E+01 -.521E+01   0.587E-07 0.448E-05 0.231E-05
   -.462E-07 0.388E+02 -.400E+04   -.996E-13 -.438E+02 0.399E+04   -.453E-07 0.506E+01 0.528E+01   0.729E-08 -.491E-05 0.105E-03
   -.755E-07 -.105E+03 -.406E+04   -.208E-13 0.118E+03 0.406E+04   0.340E-08 -.133E+02 0.443E+01   0.689E-07 0.278E-04 0.862E-04
   -.449E-07 0.252E+02 -.472E+04   0.990E-14 -.281E+02 0.476E+04   0.527E-07 0.287E+01 -.350E+02   -.105E-06 -.692E-05 0.581E-05
   -.475E-07 -.252E+02 0.472E+04   -.141E-13 0.281E+02 -.476E+04   -.265E-08 -.287E+01 0.350E+02   0.482E-07 0.112E-05 0.860E-04
   0.689E-07 0.105E+03 0.406E+04   -.258E-13 -.118E+03 -.406E+04   0.503E-08 0.133E+02 -.443E+01   -.575E-07 -.534E-05 -.472E-04
   0.324E-07 -.388E+02 0.400E+04   -.189E-13 0.438E+02 -.399E+04   -.727E-07 -.506E+01 -.528E+01   0.177E-08 -.616E-05 -.756E-04
   0.863E-07 0.382E+02 0.332E+04   -.913E-13 -.433E+02 -.332E+04   0.852E-07 0.507E+01 0.521E+01   -.147E-06 -.532E-05 0.165E-05
   0.418E-07 -.105E+03 0.325E+04   -.338E-13 0.118E+03 -.326E+04   -.261E-07 -.134E+02 0.430E+01   -.138E-07 0.146E-04 0.219E-04
   0.219E-06 0.235E+02 0.250E+04   0.295E-13 -.263E+02 -.247E+04   0.231E-07 0.279E+01 -.340E+02   -.183E-06 -.454E-05 0.107E-03
   -.535E-07 0.235E+02 0.299E+04   -.306E-13 -.263E+02 -.302E+04   0.385E-07 0.279E+01 0.340E+02   -.120E-07 -.328E-06 0.415E-05
   0.446E-07 -.105E+03 0.223E+04   0.569E-14 0.118E+03 -.223E+04   0.874E-08 -.134E+02 -.432E+01   -.477E-07 0.380E-05 -.348E-05
   -.190E-06 0.382E+02 0.217E+04   0.692E-13 -.433E+02 -.217E+04   -.916E-07 0.507E+01 -.519E+01   0.136E-06 0.158E-05 0.114E-05
   -.115E-06 -.382E+02 0.149E+04   -.763E-13 0.433E+02 -.149E+04   -.699E-07 -.507E+01 0.519E+01   0.474E-07 -.792E-05 0.474E-05
   -.628E-07 0.105E+03 0.142E+04   0.626E-13 -.118E+03 -.143E+04   0.205E-07 0.134E+02 0.432E+01   0.378E-07 0.158E-05 -.817E-05
   -.117E-07 -.235E+02 0.671E+03   0.584E-13 0.263E+02 -.637E+03   0.870E-08 -.279E+01 -.340E+02   -.294E-08 -.125E-05 -.238E-04
   -.538E-07 -.235E+02 0.116E+04   -.378E-13 0.263E+02 -.119E+04   -.233E-07 -.279E+01 0.340E+02   0.101E-06 0.475E-06 -.260E-04
   0.188E-07 0.105E+03 0.405E+03   -.196E-13 -.118E+03 -.401E+03   -.348E-07 0.134E+02 -.432E+01   0.295E-07 0.321E-06 -.270E-04
   0.133E-07 -.382E+02 0.342E+03   -.565E-13 0.433E+02 -.337E+03   -.233E-07 -.507E+01 -.519E+01   0.801E-07 -.525E-05 -.286E-04
 -----------------------------------------------------------------------------------------------
   -.170E-06 0.116E-03 0.364E-03   -.325E-12 -.497E-13 -.330E-11   -.297E-06 -.117E-03 -.412E-03   0.890E-07 -.426E-05 0.484E-04


 POSITION                                       TOTAL-FORCE (eV/Angst)
 -----------------------------------------------------------------------------------
      0.92110      0.26063      1.45334         0.000000      0.000277      0.000099
      2.76330      2.19389      5.94761        -0.000000      0.000285     -0.000299
      0.92110      1.67262      8.85429         0.000000     -0.000294      0.000049
      2.76330      3.60587     13.34855        -0.000000      0.001849     -0.008113
      0.92110      0.26063     16.25524         0.000000     -0.052555      0.089024
      2.76330      3.60587     42.95235         0.000000      0.052545     -0.088771
      0.92110      0.26063     45.85904        -0.000000     -0.001858      0.008220
      2.76330      2.19389     50.35330         0.000000      0.000291     -0.000101
      0.92110      1.67262     53.25999         0.000000     -0.000285      0.000294
      2.76330      3.60587     57.75425        -0.000000     -0.000287      0.000077
      2.76330      3.86045      0.92291         0.000000     -0.000533      0.000291
      0.92110      2.00849      1.22922        -0.000000      0.000149      0.000839
      0.92110      0.11527      3.12159        -0.000000     -0.000240      0.001013
      2.76330      2.04853      4.27936         0.000000     -0.000239     -0.001043
      2.76330      0.07523      6.17173        -0.000000      0.000142     -0.000883
      0.92110      1.92720      6.47804         0.000000     -0.000536     -0.000318
      2.76330      1.93931      8.32386         0.000000      0.000531      0.000273
      0.92110      3.79127      8.63017         0.000000     -0.000140      0.000822
      0.92110      1.81798     10.52254         0.000000      0.000232      0.000982
      2.76330      3.75123     11.68031         0.000000      0.000143     -0.000966
      2.76330      1.85802     13.57268        -0.000000     -0.001400      0.001636
      0.92110      0.00605     13.87899         0.000000     -0.002403     -0.013211
      2.76330      3.86045     15.72481        -0.000000     -0.003035      0.010581
      0.92110      2.00849     16.03112         0.000000      0.049646      0.003518
      0.92110      0.11527     17.92349        -0.000000      0.007763     -0.053825
      2.76330      3.75123     41.28411         0.000000     -0.007755      0.053645
      2.76330      1.85802     43.17648         0.000000     -0.049638     -0.003550
      0.92110      0.00605     43.48278        -0.000000      0.003030     -0.010617
      2.76330      3.86045     45.32861         0.000000      0.002401      0.013195
      0.92110      2.00849     45.63491         0.000000      0.001402     -0.001639
      0.92110      0.11527     47.52728         0.000000     -0.000135      0.000872
      2.76330      2.04853     48.68506        -0.000000     -0.000227     -0.000929
      2.76330      0.07523     50.57743         0.000000      0.000140     -0.000823
      0.92110      1.92720     50.88373        -0.000000     -0.000532     -0.000263
      2.76330      1.93931     52.72956        -0.000000      0.000536      0.000323
      0.92110      3.79127     53.03586         0.000000     -0.000139      0.000892
      0.92110      1.81798     54.92823         0.000000      0.000235      0.001025
      2.76330      3.75123     56.08600         0.000000      0.000244     -0.001131
      2.76330      1.85802     57.97838         0.000000     -0.000139     -0.000868
      0.92110      0.00605     58.28468         0.000000      0.000529     -0.000320
 -----------------------------------------------------------------------------------
    total drift:                               -0.000000     -0.000004      0.000001


--------------------------------------------------------------------------------------------------------



  FREE ENERGIE OF THE ION-ELECTRON SYSTEM (eV)
  ---------------------------------------------------
  free  energy   TOTEN  =      -351.19713306 eV

  energy  without entropy=     -351.19713306  energy(sigma->0) =     -351.19713306



--------------------------------------------------------------------------------------------------------


    POTLOK:  cpu time    0.3200: real time    0.3219


--------------------------------------------------------------------------------------------------------


     LOOP+:  cpu time  487.2665: real time  503.2345
    4ORBIT:  cpu time    0.0000: real time    0.0000



 total charge

# of ion     s       p       d       tot
----------------------------------------
  1        2.426   6.366   3.903  12.695
  2        2.426   6.366   3.903  12.695
  3        2.426   6.366   3.903  12.695
  4        2.426   6.366   3.903  12.695
  5        2.426   6.366   3.907  12.700
  6        2.426   6.366   3.907  12.700
  7        2.426   6.366   3.903  12.695
  8        2.426   6.366   3.903  12.695
  9        2.426   6.366   3.903  12.695
 10        2.426   6.366   3.903  12.695
 11        1.565   3.488   0.000   5.053
 12        1.581   3.443   0.000   5.024
 13        1.614   3.344   0.000   4.957
 14        1.614   3.344   0.000   4.957
 15        1.581   3.443   0.000   5.024
 16        1.565   3.488   0.000   5.053
 17        1.565   3.488   0.000   5.053
 18        1.581   3.443   0.000   5.024
 19        1.614   3.344   0.000   4.957
 20        1.614   3.344   0.000   4.957
 21        1.581   3.443   0.000   5.024
 22        1.565   3.488   0.000   5.053
 23        1.565   3.488   0.000   5.054
 24        1.581   3.444   0.000   5.025
 25        1.614   3.337   0.000   4.951
 26        1.614   3.337   0.000   4.951
 27        1.581   3.444   0.000   5.025
 28        1.565   3.488   0.000   5.054
 29        1.565   3.488   0.000   5.053
 30        1.581   3.443   0.000   5.024
 31        1.614   3.344   0.000   4.957
 32        1.614   3.344   0.000   4.957
 33        1.581   3.443   0.000   5.024
 34        1.565   3.488   0.000   5.053
 35        1.565   3.488   0.000   5.053
 36        1.581   3.443   0.000   5.024
 37        1.614   3.344   0.000   4.957
 38        1.614   3.344   0.000   4.957
 39        1.581   3.443   0.000   5.024
 40        1.565   3.488   0.000   5.053
------------------------------------------------
tot       71.859 166.395  39.035 277.290

 BZINTS: Fermi energy: -1.914875;320.000000 electrons
         Band energy:***********;  BLOECHL correction:  0.000000

 total amount of memory used by VASP on root node   157499. kBytes
========================================================================

   base      :      30000. kBytes
   nonl-proj :       8065. kBytes
   fftplans  :      13725. kBytes
   grid      :      23450. kBytes
   one-center:         31. kBytes
   wavefun   :      82228. kBytes



 General timing and accounting informations for this job:
 ========================================================

                  Total CPU time used (sec):      563.343
                            User time (sec):      505.324
                          System time (sec):       58.020
                         Elapsed time (sec):      621.085

                   Maximum memory used (kb):      177424.
                   Average memory used (kb):           0.

                          Minor page faults:        47648
                          Major page faults:            0
                 Voluntary context switches:         4759
