 vasp.5.4.1 05Feb16 (build Mar 25 2016 06:51:17) complex                        
  
 executed on           IFC91_ompi date 2017.07.30  22:54:44
 running on    8 total cores
 distrk:  each k-point on    8 cores,    1 groups
 distr:  one band on NCORES_PER_BAND=   8 cores,    1 groups


--------------------------------------------------------------------------------------------------------


 INCAR:
 POTCAR:    PAW_PBE Bi_d 06Sep2000                
 POTCAR:    PAW_PBE O 08Apr2002                   

 ----------------------------------------------------------------------------- 
|                                                                             |
|           W    W    AA    RRRRR   N    N  II  N    N   GGGG   !!!           |
|           W    W   A  A   R    R  NN   N  II  NN   N  G    G  !!!           |
|           W    W  A    A  R    R  N N  N  II  N N  N  G       !!!           |
|           W WW W  AAAAAA  RRRRR   N  N N  II  N  N N  G  GGG   !            |
|           WW  WW  A    A  R   R   N   NN  II  N   NN  G    G                |
|           W    W  A    A  R    R  N    N  II  N    N   GGGG   !!!           |
|                                                                             |
|      For optimal performance we recommend to set                            |
|        NCORE= 4 - approx SQRT( number of cores)                             |
|      NCORE specifies how many cores store one orbital (NPAR=cpu/NCORE).     |
|      This setting can  greatly improve the performance of VASP for DFT.     |
|      The default, NPAR=number of cores might be grossly inefficient         |
|      on modern multi-core architectures or massively parallel machines.     |
|      Do your own testing !!!!                                               |
|      Unfortunately you need to use the default for GW and RPA calculations. |
|      (for HF NCORE is supported but not extensively tested yet)             |
|                                                                             |
 ----------------------------------------------------------------------------- 

 POTCAR:    PAW_PBE Bi_d 06Sep2000                
   VRHFIN =Bi:                                                                  
   LEXCH  = PE                                                                  
   EATOM  =  1959.2045 eV,  143.9975 Ry                                         
                                                                                
   TITEL  = PAW_PBE Bi_d 06Sep2000                                              
   LULTRA =        F    use ultrasoft PP ?                                      
   IUNSCR =        1    unscreen: 0-lin 1-nonlin 2-no                           
   RPACOR =    2.200    partial core radius                                     
   POMASS =  208.980; ZVAL   =   15.000    mass and valenz                      
   RCORE  =    2.500    outmost cutoff radius                                   
   RWIGS  =    3.090; RWIGS  =    1.635    wigner-seitz radius (au A)           
   ENMAX  =  242.839; ENMIN  =  182.129 eV                                      
   ICORE  =        3    local potential                                         
   LCOR   =        T    correct aug charges                                     
   LPAW   =        T    paw PP                                                  
   EAUG   =  442.899                                                            
   DEXC   =    0.000                                                            
   RMAX   =    2.551    core radius for proj-oper                               
   RAUG   =    1.300    factor for augmentation sphere                          
   RDEP   =    2.650    radius for radial grids                                 
   RDEPT  =    2.039    core radius for aug-charge                              
                                                                                
   Atomic configuration                                                         
   16 entries                                                                   
     n  l   j            E        occ.                                          
     1  0  0.50    -90639.6581   2.0000                                         
     2  0  0.50    -16282.4666   2.0000                                         
     2  1  1.50    -13922.8286   6.0000                                         
     3  0  0.50     -3930.4763   2.0000                                         
     3  1  1.50     -3256.7013   6.0000                                         
     3  2  2.50     -2581.6168  10.0000                                         
     4  0  0.50      -902.2614   2.0000                                         
     4  1  1.50      -681.5915   6.0000                                         
     4  2  2.50      -429.8249  10.0000                                         
     4  3  3.50      -152.6004  14.0000                                         
     5  0  0.50      -157.7156   2.0000                                         
     5  1  1.50       -95.8054   6.0000                                         
     5  2  2.50       -27.0806  10.0000                                         
     6  0  0.50       -14.4732   2.0000                                         
     6  1  1.50        -4.5702   3.0000                                         
     5  3  2.50        -2.7212   0.0000                                         
   Description                                                                  
     l       E           TYP  RCUT    TYP  RCUT                                 
     2    -27.0805982     23  2.500                                             
     2     -1.3605826     23  2.500                                             
     0    -14.4732271     23  2.500                                             
     0      6.8029130     23  2.500                                             
     1     -4.5701651     23  2.500                                             
     1     13.6058260     23  2.500                                             
     3     -1.3605826      7  2.500                                             
  local pseudopotential read in
  partial core-charges read in
  partial kinetic energy density read in
  atomic valenz-charges read in
  non local Contribution for L=           2  read in
    real space projection operators read in
  non local Contribution for L=           2  read in
    real space projection operators read in
  non local Contribution for L=           0  read in
    real space projection operators read in
  non local Contribution for L=           0  read in
    real space projection operators read in
  non local Contribution for L=           1  read in
    real space projection operators read in
  non local Contribution for L=           1  read in
    real space projection operators read in
    PAW grid and wavefunctions read in
 
   number of l-projection  operators is LMAX  =           6
   number of lm-projection operators is LMMAX =          18
 
 POTCAR:    PAW_PBE O 08Apr2002                   
   VRHFIN =O: s2p4                                                              
   LEXCH  = PE                                                                  
   EATOM  =   432.3788 eV,   31.7789 Ry                                         
                                                                                
   TITEL  = PAW_PBE O 08Apr2002                                                 
   LULTRA =        F    use ultrasoft PP ?                                      
   IUNSCR =        1    unscreen: 0-lin 1-nonlin 2-no                           
   RPACOR =    1.200    partial core radius                                     
   POMASS =   16.000; ZVAL   =    6.000    mass and valenz                      
   RCORE  =    1.520    outmost cutoff radius                                   
   RWIGS  =    1.550; RWIGS  =    0.820    wigner-seitz radius (au A)           
   ENMAX  =  400.000; ENMIN  =  300.000 eV                                      
   ICORE  =        2    local potential                                         
   LCOR   =        T    correct aug charges                                     
   LPAW   =        T    paw PP                                                  
   EAUG   =  605.392                                                            
   DEXC   =    0.000                                                            
   RMAX   =    1.553    core radius for proj-oper                               
   RAUG   =    1.300    factor for augmentation sphere                          
   RDEP   =    1.550    radius for radial grids                                 
   RDEPT  =    1.329    core radius for aug-charge                              
                                                                                
   Atomic configuration                                                         
    4 entries                                                                   
     n  l   j            E        occ.                                          
     1  0  0.50      -514.6923   2.0000                                         
     2  0  0.50       -23.9615   2.0000                                         
     2  1  0.50        -9.0305   4.0000                                         
     3  2  1.50        -9.5241   0.0000                                         
   Description                                                                  
     l       E           TYP  RCUT    TYP  RCUT                                 
     0    -23.9615318     23  1.200                                             
     0     -9.5240782     23  1.200                                             
     1     -9.0304911     23  1.520                                             
     1      8.1634956     23  1.520                                             
     2     -9.5240782      7  1.500                                             
  local pseudopotential read in
  partial core-charges read in
  partial kinetic energy density read in
  kinetic energy density of atom read in
  atomic valenz-charges read in
  non local Contribution for L=           0  read in
    real space projection operators read in
  non local Contribution for L=           0  read in
    real space projection operators read in
  non local Contribution for L=           1  read in
    real space projection operators read in
  non local Contribution for L=           1  read in
    real space projection operators read in
    PAW grid and wavefunctions read in
 
   number of l-projection  operators is LMAX  =           4
   number of lm-projection operators is LMMAX =           8
 

 ----------------------------------------------------------------------------- 
|                                                                             |
|  ADVICE TO THIS USER RUNNING 'VASP/VAMP'   (HEAR YOUR MASTER'S VOICE ...):  |
|                                                                             |
|      You have a (more or less) 'large supercell' and for larger cells       |
|      it might be more efficient to use real space projection opertators     |
|      So try LREAL= Auto  in the INCAR   file.                               |
|      Mind: At the moment your POTCAR file does not contain real space       |
|       projectors, and has to be modified,  BUT if you                       |
|      want to do an extremely  accurate calculation you might also keep the  |
|      reciprocal projection scheme          (i.e. LREAL=.FALSE.)             |
|                                                                             |
 ----------------------------------------------------------------------------- 


 ----------------------------------------------------------------------------- 
|                                                                             |
|  ADVICE TO THIS USER RUNNING 'VASP/VAMP'   (HEAR YOUR MASTER'S VOICE ...):  |
|                                                                             |
|      You enforced a specific xc-type in the INCAR file,                     |
|      a different type was found on the POTCAR file                          |
|          I HOPE YOU KNOW, WHAT YOU ARE  DOING                               |
|                                                                             |
 ----------------------------------------------------------------------------- 

  PAW_PBE Bi_d 06Sep2000                :
 energy of atom  1       EATOM=-1959.2045
 kinetic energy error for atom=    0.0049 (will be added to EATOM!!)
  PAW_PBE O 08Apr2002                   :
 energy of atom  2       EATOM= -432.3788
 kinetic energy error for atom=    0.0224 (will be added to EATOM!!)
 
 
 POSCAR: Bi8 O12                                 
  positions in direct lattice
  velocities in cartesian coordinates
 exchange correlation table for  LEXCH =       14
   RHO(1)=    0.500       N(1)  =     2000
   RHO(2)=  100.500       N(2)  =     4000
 


--------------------------------------------------------------------------------------------------------


 ion  position               nearest neighbor table
   1  0.236  0.276  0.456-  15 2.16  19 2.26  11 2.31  13 2.39  20 2.48   9 2.76   8 3.41   5 3.57
                             7 3.58   3 3.60   7 3.65
   2  0.264  0.224  0.956-  16 2.16  20 2.26  12 2.31  14 2.39  19 2.48  10 2.76   7 3.41   6 3.57
                             8 3.58   4 3.60   8 3.65
   3  0.764  0.724  0.544-  13 2.16  17 2.26   9 2.31  15 2.39  18 2.48  11 2.76   6 3.41   7 3.57
                             5 3.58   1 3.60   5 3.65
   4  0.736  0.776  0.044-  14 2.16  18 2.26  10 2.31  16 2.39  17 2.48  12 2.76   5 3.41   8 3.57
                             6 3.58   2 3.60   6 3.65
   5  0.347  0.868  0.312-  11 2.15  13 2.24  17 2.24   9 2.47  20 2.54   4 3.41   1 3.57   3 3.58
                             3 3.65   7 3.67   8 3.84   8 3.84
   6  0.153  0.632  0.812-  12 2.15  14 2.24  18 2.24  10 2.47  19 2.54   3 3.41   2 3.57   4 3.58
                             4 3.65   8 3.67   7 3.84   7 3.84
   7  0.653  0.132  0.688-   9 2.15  15 2.24  19 2.24  11 2.47  18 2.54   2 3.41   3 3.57   1 3.58
                             1 3.65   5 3.67   6 3.84   6 3.84
   8  0.847  0.368  0.188-  10 2.15  16 2.24  20 2.24  12 2.47  17 2.54   1 3.41   4 3.57   2 3.58
                             2 3.65   6 3.67   5 3.84   5 3.84
   9  0.743  0.014  0.467-   7 2.15   3 2.31   5 2.47   1 2.76
  10  0.757  0.486  0.967-   8 2.15   4 2.31   6 2.47   2 2.76
  11  0.257  0.986  0.533-   5 2.15   1 2.31   7 2.47   3 2.76
  12  0.243  0.514  0.033-   6 2.15   2 2.31   8 2.47   4 2.76
  13  0.388  0.624  0.449-   3 2.16   5 2.24   1 2.39
  14  0.112  0.876  0.949-   4 2.16   6 2.24   2 2.39
  15  0.612  0.376  0.551-   1 2.16   7 2.24   3 2.39
  16  0.888  0.124  0.051-   2 2.16   8 2.24   4 2.39
  17  0.930  0.707  0.295-   5 2.24   3 2.26   4 2.48   8 2.54
  18  0.570  0.793  0.795-   6 2.24   4 2.26   3 2.48   7 2.54
  19  0.070  0.293  0.705-   7 2.24   1 2.26   2 2.48   6 2.54
  20  0.430  0.207  0.205-   8 2.24   2 2.26   1 2.48   5 2.54
 
  LATTYP: Found a simple monoclinic cell.
 ALAT       =    11.0478171864
 B/A-ratio  =     0.7309780863
 C/A-ratio  =     1.4533351557
 COS(beta)  =    -0.9740699999
  
  Lattice vectors:
  
 A1 = (  -8.6794688807,  -6.8352823302,   0.0000000000)
 A2 = (   0.0000000000,   0.0000000000,  -8.0757122651)
 A3 = (  14.5346178761,   6.8224508098,   0.0000000000)


Analysis of symmetry for initial positions (statically):
=====================================================================
 Subroutine PRICEL returns:
 Original cell was already a primitive cell.
 

 Routine SETGRP: Setting up the symmetry group for a 
 simple monoclinic supercell.


 Subroutine GETGRP returns: Found  4 space group operations
 (whereof  2 operations were pure point group operations)
 out of a pool of  4 trial point group operations.


The static configuration has the point symmetry S_2 .
 The point group associated with its full space group is C_2h.


Analysis of symmetry for dynamics (positions and initial velocities):
=====================================================================
 Subroutine PRICEL returns:
 Original cell was already a primitive cell.
 

 Routine SETGRP: Setting up the symmetry group for a 
 simple monoclinic supercell.


 Subroutine GETGRP returns: Found  4 space group operations
 (whereof  2 operations were pure point group operations)
 out of a pool of  4 trial point group operations.


The dynamic configuration has the point symmetry S_2 .
 The point group associated with its full space group is C_2h.


 Subroutine INISYM returns: Found  4 space group operations
 (whereof  2 operations are pure point group operations),
 and found     1 'primitive' translations

 
 

Automatic generation of k-mesh.
 generate k-points for:    5    4    4
Space group operators:
 irot       det(A)        alpha          n_x          n_y          n_z        tau_x        tau_y        tau_z
    1     1.000000     0.000001     1.000000     0.000000     0.000000     0.000000     0.000000     0.000000
    2    -1.000000     0.000001     1.000000     0.000000     0.000000     0.000000     0.000000     0.000000
    3     1.000000   180.000000     0.000000     0.000000     1.000000     1.500000     0.500000    -0.500000
    4    -1.000000   180.000000     0.000000     0.000000     1.000000     1.500000     0.500000    -0.500000
 
 Subroutine IBZKPT returns following result:
 ===========================================
 
 Found     33 irreducible k-points:
 
 Following reciprocal coordinates:
            Coordinates               Weight
  0.000000  0.000000  0.000000      1.000000
  0.200000  0.000000  0.000000      2.000000
  0.400000  0.000000  0.000000      2.000000
  0.000000  0.250000  0.000000      2.000000
  0.200000  0.250000  0.000000      2.000000
  0.400000  0.250000  0.000000      2.000000
 -0.400000  0.250000  0.000000      2.000000
 -0.200000  0.250000  0.000000      2.000000
  0.000000  0.500000  0.000000      1.000000
  0.200000  0.500000  0.000000      2.000000
  0.400000  0.500000  0.000000      2.000000
  0.000000  0.000000  0.250000      2.000000
  0.200000  0.000000  0.250000      4.000000
  0.400000  0.000000  0.250000      4.000000
  0.000000  0.250000  0.250000      4.000000
  0.200000  0.250000  0.250000      4.000000
  0.400000  0.250000  0.250000      4.000000
 -0.400000  0.250000  0.250000      4.000000
 -0.200000  0.250000  0.250000      4.000000
  0.000000  0.500000  0.250000      2.000000
  0.200000  0.500000  0.250000      4.000000
  0.400000  0.500000  0.250000      4.000000
  0.000000  0.000000  0.500000      1.000000
  0.200000  0.000000  0.500000      2.000000
  0.400000  0.000000  0.500000      2.000000
  0.000000  0.250000  0.500000      2.000000
  0.200000  0.250000  0.500000      2.000000
  0.400000  0.250000  0.500000      2.000000
 -0.400000  0.250000  0.500000      2.000000
 -0.200000  0.250000  0.500000      2.000000
  0.000000  0.500000  0.500000      1.000000
  0.200000  0.500000  0.500000      2.000000
  0.400000  0.500000  0.500000      2.000000
 
 Following cartesian coordinates:
            Coordinates               Weight
  0.000000  0.000000  0.000000      1.000000
  0.034191  0.015104  0.000000      2.000000
  0.068382  0.030208  0.000000      2.000000
  0.000080  0.036473  0.000000      2.000000
  0.034271  0.051577  0.000000      2.000000
  0.068462  0.066681  0.000000      2.000000
 -0.068302  0.006266  0.000000      2.000000
 -0.034111  0.021369  0.000000      2.000000
  0.000160  0.072947  0.000000      1.000000
  0.034351  0.088051  0.000000      2.000000
  0.068542  0.103155  0.000000      2.000000
  0.000000  0.000000  0.030957      2.000000
  0.034191  0.015104  0.030957      4.000000
  0.068382  0.030208  0.030957      4.000000
  0.000080  0.036473  0.030957      4.000000
  0.034271  0.051577  0.030957      4.000000
  0.068462  0.066681  0.030957      4.000000
 -0.068302  0.006266  0.030957      4.000000
 -0.034111  0.021369  0.030957      4.000000
  0.000160  0.072947  0.030957      2.000000
  0.034351  0.088051  0.030957      4.000000
  0.068542  0.103155  0.030957      4.000000
  0.000000  0.000000  0.061914      1.000000
  0.034191  0.015104  0.061914      2.000000
  0.068382  0.030208  0.061914      2.000000
  0.000080  0.036473  0.061914      2.000000
  0.034271  0.051577  0.061914      2.000000
  0.068462  0.066681  0.061914      2.000000
 -0.068302  0.006266  0.061914      2.000000
 -0.034111  0.021369  0.061914      2.000000
  0.000160  0.072947  0.061914      1.000000
  0.034351  0.088051  0.061914      2.000000
  0.068542  0.103155  0.061914      2.000000
 
 TETIRR: Found    240 inequivalent tetrahedra from      480


--------------------------------------------------------------------------------------------------------




 Dimension of arrays:
   k-points           NKPTS =     33   k-points in BZ     NKDIM =     33   number of bands    NBANDS=    115
   number of dos      NEDOS =    301   number of ions     NIONS =     20
   non local maximal  LDIM  =      6   non local SUM 2l+1 LMDIM =     18
   total plane-waves  NPLWV = 161280
   max r-space proj   IRMAX =      1   max aug-charges    IRDMAX=  22189
   dimension x,y,z NGX =    48 NGY =   56 NGZ =   60
   dimension x,y,z NGXF=    96 NGYF=  112 NGZF=  120
   support grid    NGXF=    96 NGYF=  112 NGZF=  120
   ions per type =               8  12
 NGX,Y,Z   is equivalent  to a cutoff of  13.63, 12.41, 12.35 a.u.
 NGXF,Y,Z  is equivalent  to a cutoff of  27.26, 24.82, 24.70 a.u.


 I would recommend the setting:
   dimension x,y,z NGX =    43 NGY =   55 NGZ =   59
 SYSTEM =  unknown system                          
 POSCAR =  Bi8 O12                                 

 Startparameter for this run:
   NWRITE =      2    write-flag & timer
   PREC   = accura    normal or accurate (medium, high low for compatibility)
   ISTART =      0    job   : 0-new  1-cont  2-samecut
   ICHARG =      2    charge: 1-file 2-atom 10-const
   ISPIN  =      1    spin polarized calculation?
   LNONCOLLINEAR =      F non collinear calculations
   LSORBIT =      F    spin-orbit coupling
   INIWAV =      1    electr: 0-lowe 1-rand  2-diag
   LASPH  =      F    aspherical Exc in radial PAW
   METAGGA=      F    non-selfconsistent MetaGGA calc.

 Electronic Relaxation 1
   ENCUT  =  500.0 eV  36.75 Ry    6.06 a.u.  10.68 13.68 14.72*2*pi/ulx,y,z
   ENINI  =  500.0     initial cutoff
   ENAUG  =  605.4 eV  augmentation charge cutoff
   NELM   =    200;   NELMIN=  4; NELMDL=  0     # of ELM steps 
   EDIFF  = 0.1E-05   stopping-criterion for ELM
   LREAL  =      F    real-space projection
   NLSPLINE    = F    spline interpolate recip. space projectors
   LCOMPAT=      F    compatible to vasp.4.4
   GGA_COMPAT  = T    GGA compatible to vasp.4.4-vasp.4.6
   LMAXPAW     = -100 max onsite density
   LMAXMIX     =    2 max onsite mixed and CHGCAR
   VOSKOWN=      0    Vosko Wilk Nusair interpolation
   ROPT   =    0.00000   0.00000
 Ionic relaxation
   EDIFFG = -.1E-02   stopping-criterion for IOM
   NSW    =     10    number of steps for IOM
   NBLOCK =      1;   KBLOCK =     10    inner block; outer block 
   IBRION =      2    ionic relax: 0-MD 1-quasi-New 2-CG
   NFREE  =      1    steps in history (QN), initial steepest desc. (CG)
   ISIF   =      3    stress and relaxation
   IWAVPR =     11    prediction:  0-non 1-charg 2-wave 3-comb
   ISYM   =      2    0-nonsym 1-usesym 2-fastsym
   LCORR  =      T    Harris-Foulkes like correction to forces

   POTIM  = 0.5000    time-step for ionic-motion
   TEIN   =    0.0    initial temperature
   TEBEG  =    0.0;   TEEND  =   0.0 temperature during run
   SMASS  =  -3.00    Nose mass-parameter (am)
   estimated Nose-frequenzy (Omega)   =  0.10E-29 period in steps =****** mass=  -0.783E-27a.u.
   SCALEE = 1.0000    scale energy and forces
   NPACO  =    256;   APACO  = 16.0  distance and # of slots for P.C.
   PSTRESS=    0.0 pullay stress

  Mass of Ions in am
   POMASS = 208.98 16.00
  Ionic Valenz
   ZVAL   =  15.00  6.00
  Atomic Wigner-Seitz radii
   RWIGS  =  -1.00 -1.00
  virtual crystal weights 
   VCA    =   1.00  1.00
   NELECT =     192.0000    total number of electrons
   NUPDOWN=      -1.0000    fix difference up-down

 DOS related values:
   EMIN   =  10.00;   EMAX   =-10.00  energy-range for DOS
   EFERMI =   0.00
   ISMEAR =    -5;   SIGMA  =   0.01  broadening in eV -4-tet -1-fermi 0-gaus

 Electronic relaxation 2 (details)
   IALGO  =     38    algorithm
   LDIAG  =      T    sub-space diagonalisation (order eigenvalues)
   LSUBROT=      F    optimize rotation matrix (better conditioning)
   TURBO    =      0    0=normal 1=particle mesh
   IRESTART =      0    0=no restart 2=restart with 2 vectors
   NREBOOT  =      0    no. of reboots
   NMIN     =      0    reboot dimension
   EREF     =   0.00    reference energy to select bands
   IMIX   =      4    mixing-type and parameters
     AMIX     =   0.40;   BMIX     =  1.00
     AMIX_MAG =   1.60;   BMIX_MAG =  1.00
     AMIN     =   0.10
     WC   =   100.;   INIMIX=   1;  MIXPRE=   1;  MAXMIX= -45

 Intra band minimization:
   WEIMIN = 0.0010     energy-eigenvalue tresh-hold
   EBREAK =  0.22E-08  absolut break condition
   DEPER  =   0.30     relativ break condition  

   TIME   =   0.40     timestep for ELM

  volume/ion in A,a.u.               =      16.21       109.36
  Fermi-wavevector in a.u.,A,eV,Ry     =   1.374932  2.598245 25.720969  1.890438
  Thomas-Fermi vector in A             =   2.500314
 
 Write flags
   LWAVE  =      F    write WAVECAR
   LCHARG =      F    write CHGCAR
   LVTOT  =      F    write LOCPOT, total local potential
   LVHAR  =      T    write LOCPOT, Hartree potential only
   LELF   =      F    write electronic localiz. function (ELF)
   LORBIT =     10    0 simple, 1 ext, 2 COOP (PROOUT)


 Dipole corrections
   LMONO  =      F    monopole corrections only (constant potential shift)
   LDIPOL =      F    correct potential (dipole corrections)
   IDIPOL =      0    1-x, 2-y, 3-z, 4-all directions 
   EPSILON=  1.0000000 bulk dielectric constant

 Core level calculations are selected ICORELEVEL =  1
 Exchange correlation treatment:
   GGA     =    PS    GGA type
   LEXCH   =    14    internal setting for exchange type
   VOSKOWN=      0    Vosko Wilk Nusair interpolation
   LHFCALC =     F    Hartree Fock is set to
   LHFONE  =     F    Hartree Fock one center treatment
   AEXX    =    0.0000 exact exchange contribution

 Linear response parameters
   LEPSILON=     F    determine dielectric tensor
   LRPA    =     F    only Hartree local field effects (RPA)
   LNABLA  =     F    use nabla operator in PAW spheres
   LVEL    =     F    velocity operator in full k-point grid
   LINTERFAST=   F  fast interpolation
   KINTER  =     0    interpolate to denser k-point grid
   CSHIFT  =0.1000    complex shift for real part using Kramers Kronig
   OMEGAMAX=  -1.0    maximum frequency
   DEG_THRESHOLD= 0.2000000E-02 threshold for treating states as degnerate
   RTIME   =    0.100 relaxation time in fs

 Orbital magnetization related:
   ORBITALMAG=     F  switch on orbital magnetization
   LCHIMAG   =     F  perturbation theory with respect to B field
   DQ        =  0.001000  dq finite difference perturbation B field



--------------------------------------------------------------------------------------------------------


 conjugate gradient relaxation of ions
 charge density and potential will be updated during run
 non-spin polarized calculation
 Variant of blocked Davidson
 Davidson routine will perform the subspace rotation
 perform sub-space diagonalisation
    after iterative eigenvector-optimisation
 modified Broyden-mixing scheme, WC =      100.0
 initial mixing is a Kerker type mixing with AMIX =  0.4000 and BMIX =      1.0000
 Hartree-type preconditioning will be used
 using additional bands           19
 reciprocal scheme for non local part
 use partial core corrections
 calculate Harris-corrections to forces 
   (improved forces if not selfconsistent)
 use gradient corrections 
 use of overlap-Matrix (Vanderbilt PP)
 Fermi weights with tetrahedron method with Bloechl corrections


--------------------------------------------------------------------------------------------------------


  energy-cutoff  :      500.00
  volume of cell :      324.10
      direct lattice vectors                 reciprocal lattice vectors
     5.855148995 -0.012831520  0.000000000     0.170955348  0.075519687  0.000000000
    -3.030829110  6.860945371  0.000000000     0.000319725  0.145893748  0.000000000
     0.000000000  0.000000000  8.075712265     0.000000000  0.000000000  0.123828087

  length of vectors
     5.855163055  7.500566410  8.075712265     0.186892894  0.145894098  0.123828087


 
 k-points in units of 2pi/SCALE and weight: read from INCAR                         
   0.00000000  0.00000000  0.00000000       0.013
   0.03419107  0.01510394  0.00000000       0.025
   0.06838214  0.03020787  0.00000000       0.025
   0.00007993  0.03647344  0.00000000       0.025
   0.03427100  0.05157737  0.00000000       0.025
   0.06846207  0.06668131  0.00000000       0.025
  -0.06830221  0.00626556  0.00000000       0.025
  -0.03411114  0.02136950  0.00000000       0.025
   0.00015986  0.07294687  0.00000000       0.013
   0.03435093  0.08805081  0.00000000       0.025
   0.06854200  0.10315475  0.00000000       0.025
   0.00000000  0.00000000  0.03095702       0.025
   0.03419107  0.01510394  0.03095702       0.050
   0.06838214  0.03020787  0.03095702       0.050
   0.00007993  0.03647344  0.03095702       0.050
   0.03427100  0.05157737  0.03095702       0.050
   0.06846207  0.06668131  0.03095702       0.050
  -0.06830221  0.00626556  0.03095702       0.050
  -0.03411114  0.02136950  0.03095702       0.050
   0.00015986  0.07294687  0.03095702       0.025
   0.03435093  0.08805081  0.03095702       0.050
   0.06854200  0.10315475  0.03095702       0.050
   0.00000000  0.00000000  0.06191404       0.013
   0.03419107  0.01510394  0.06191404       0.025
   0.06838214  0.03020787  0.06191404       0.025
   0.00007993  0.03647344  0.06191404       0.025
   0.03427100  0.05157737  0.06191404       0.025
   0.06846207  0.06668131  0.06191404       0.025
  -0.06830221  0.00626556  0.06191404       0.025
  -0.03411114  0.02136950  0.06191404       0.025
   0.00015986  0.07294687  0.06191404       0.013
   0.03435093  0.08805081  0.06191404       0.025
   0.06854200  0.10315475  0.06191404       0.025
 
 k-points in reciprocal lattice and weights: read from INCAR                         
   0.00000000  0.00000000  0.00000000       0.013
   0.20000000  0.00000000  0.00000000       0.025
   0.40000000  0.00000000  0.00000000       0.025
   0.00000000  0.25000000  0.00000000       0.025
   0.20000000  0.25000000  0.00000000       0.025
   0.40000000  0.25000000  0.00000000       0.025
  -0.40000000  0.25000000  0.00000000       0.025
  -0.20000000  0.25000000  0.00000000       0.025
   0.00000000  0.50000000  0.00000000       0.013
   0.20000000  0.50000000  0.00000000       0.025
   0.40000000  0.50000000  0.00000000       0.025
   0.00000000  0.00000000  0.25000000       0.025
   0.20000000  0.00000000  0.25000000       0.050
   0.40000000  0.00000000  0.25000000       0.050
   0.00000000  0.25000000  0.25000000       0.050
   0.20000000  0.25000000  0.25000000       0.050
   0.40000000  0.25000000  0.25000000       0.050
  -0.40000000  0.25000000  0.25000000       0.050
  -0.20000000  0.25000000  0.25000000       0.050
   0.00000000  0.50000000  0.25000000       0.025
   0.20000000  0.50000000  0.25000000       0.050
   0.40000000  0.50000000  0.25000000       0.050
   0.00000000  0.00000000  0.50000000       0.013
   0.20000000  0.00000000  0.50000000       0.025
   0.40000000  0.00000000  0.50000000       0.025
   0.00000000  0.25000000  0.50000000       0.025
   0.20000000  0.25000000  0.50000000       0.025
   0.40000000  0.25000000  0.50000000       0.025
  -0.40000000  0.25000000  0.50000000       0.025
  -0.20000000  0.25000000  0.50000000       0.025
   0.00000000  0.50000000  0.50000000       0.013
   0.20000000  0.50000000  0.50000000       0.025
   0.40000000  0.50000000  0.50000000       0.025
 
 position of ions in fractional coordinates (direct lattice) 
   0.23556732  0.27600739  0.45557654
   0.26443266  0.22399259  0.95557654
   0.76443269  0.72399261  0.54442346
   0.73556731  0.77600739  0.04442345
   0.34655768  0.86784987  0.31190768
   0.15344234  0.63215013  0.81190768
   0.65344235  0.13215013  0.68809232
   0.84655765  0.36784987  0.18809230
   0.74291033  0.01368953  0.46722897
   0.75708967  0.48631047  0.96722894
   0.25708967  0.98631047  0.53277106
   0.24291034  0.51368953  0.03277104
   0.38781403  0.62350500  0.44877263
   0.11218597  0.87649500  0.94877260
   0.61218597  0.37649503  0.55122740
   0.88781403  0.12350497  0.05122737
   0.92981743  0.70728502  0.29529728
   0.57018257  0.79271498  0.79529728
   0.07018255  0.29271498  0.70470272
   0.42981743  0.20728504  0.20470271
 
 position of ions in cartesian coordinates  (Angst):
   0.54275053  1.89064896  3.67910504
   0.86940937  1.53340786  7.71696117
   2.28156944  4.95746489  4.39660722
   1.95491039  5.31470589  0.35875100
  -0.60115782  5.94982369  2.51887668
  -1.01751126  4.33517860  6.55673282
   3.42547788  0.89829016  5.55683558
   3.84183105  2.51293525  1.51897933
   4.30836004  0.08439043  3.77320674
   2.95894892  3.32683493  7.81106263
  -1.48404013  6.76372338  4.30250577
  -0.13462895  3.52127892  0.26464951
   0.38097183  4.27285747  3.62415866
  -1.99964100  6.01214483  7.66201455
   2.44334797  2.57525659  4.45155385
   4.82396097  0.83596882  0.41369751
   3.30055958  4.84071293  2.38473585
   0.93592025  5.43145785  6.42259198
  -0.47623977  2.00740092  5.69097641
   1.88839959  1.41665610  1.65312016
 


--------------------------------------------------------------------------------------------------------


 k-point  1 :   0.0000 0.0000 0.0000  plane waves:    8217
 k-point  2 :   0.2000 0.0000 0.0000  plane waves:    8237
 k-point  3 :   0.4000 0.0000 0.0000  plane waves:    8232
 k-point  4 :   0.0000 0.2500 0.0000  plane waves:    8248
 k-point  5 :   0.2000 0.2500 0.0000  plane waves:    8234
 k-point  6 :   0.4000 0.2500 0.0000  plane waves:    8227
 k-point  7 :  -0.4000 0.2500 0.0000  plane waves:    8233
 k-point  8 :  -0.2000 0.2500 0.0000  plane waves:    8252
 k-point  9 :   0.0000 0.5000 0.0000  plane waves:    8212
 k-point 10 :   0.2000 0.5000 0.0000  plane waves:    8223
 k-point 11 :   0.4000 0.5000 0.0000  plane waves:    8219
 k-point 12 :   0.0000 0.0000 0.2500  plane waves:    8233
 k-point 13 :   0.2000 0.0000 0.2500  plane waves:    8235
 k-point 14 :   0.4000 0.0000 0.2500  plane waves:    8218
 k-point 15 :   0.0000 0.2500 0.2500  plane waves:    8229
 k-point 16 :   0.2000 0.2500 0.2500  plane waves:    8235
 k-point 17 :   0.4000 0.2500 0.2500  plane waves:    8220
 k-point 18 :  -0.4000 0.2500 0.2500  plane waves:    8221
 k-point 19 :  -0.2000 0.2500 0.2500  plane waves:    8224
 k-point 20 :   0.0000 0.5000 0.2500  plane waves:    8212
 k-point 21 :   0.2000 0.5000 0.2500  plane waves:    8224
 k-point 22 :   0.4000 0.5000 0.2500  plane waves:    8235
 k-point 23 :   0.0000 0.0000 0.5000  plane waves:    8274
 k-point 24 :   0.2000 0.0000 0.5000  plane waves:    8244
 k-point 25 :   0.4000 0.0000 0.5000  plane waves:    8230
 k-point 26 :   0.0000 0.2500 0.5000  plane waves:    8236
 k-point 27 :   0.2000 0.2500 0.5000  plane waves:    8192
 k-point 28 :   0.4000 0.2500 0.5000  plane waves:    8228
 k-point 29 :  -0.4000 0.2500 0.5000  plane waves:    8232
 k-point 30 :  -0.2000 0.2500 0.5000  plane waves:    8236
 k-point 31 :   0.0000 0.5000 0.5000  plane waves:    8204
 k-point 32 :   0.2000 0.5000 0.5000  plane waves:    8220
 k-point 33 :   0.4000 0.5000 0.5000  plane waves:    8232

 maximum and minimum number of plane-waves per node :      1062     1009

 maximum number of plane-waves:      8274
 maximum index in each direction: 
   IXMAX=   11   IYMAX=   13   IZMAX=   14
   IXMIN=  -11   IYMIN=  -14   IZMIN=  -15

 NGX is ok and might be reduce to  46
 NGY is ok and might be reduce to  56
 NGZ is ok and might be reduce to  60

 parallel 3D FFT for wavefunctions:
    minimum data exchange during FFTs selected (reduces bandwidth)
 parallel 3D FFT for charge:
    minimum data exchange during FFTs selected (reduces bandwidth)


 total amount of memory used by VASP on root node   123073. kBytes
========================================================================

   base      :      30000. kBytes
   nonl-proj :      10433. kBytes
   fftplans  :       6095. kBytes
   grid      :       9950. kBytes
   one-center:         46. kBytes
   wavefun   :      66549. kBytes
 
     INWAV:  cpu time    0.0000: real time    0.0001
 Broyden mixing: mesh for mixing (old mesh)
   NGX = 21   NGY = 27   NGZ = 29
  (NGX  = 96   NGY  =112   NGZ  =120)
  gives a total of  16443 points

 initial charge density was supplied:
 charge density of overlapping atoms calculated
 number of electron     192.0000000 magnetization 
 keeping initial charge density in first step


--------------------------------------------------------------------------------------------------------


 Maximum index for augmentation-charges         2697 (set IRDMAX)


--------------------------------------------------------------------------------------------------------


 First call to EWALD:  gamma=   0.258
 Maximum number of real-space cells 3x 3x 2
 Maximum number of reciprocal cells 2x 3x 3

 FEWALD executed in parallel
    FEWALD:  cpu time    0.0040: real time    0.0022


----------------------------------------- Iteration    1(   1)  ---------------------------------------


    POTLOK:  cpu time    0.1440: real time    0.1467
    SETDIJ:  cpu time    0.0160: real time    0.0152
     EDDAV:  cpu time   27.0760: real time   27.0880
 BZINTS: Fermi energy: 38.381026;192.000000 electrons
         Band energy:1614.568805;  BLOECHL correction: -0.279242
       DOS:  cpu time    0.0680: real time    0.0683
    --------------------------------------------
      LOOP:  cpu time   27.3080: real time   27.3208

 eigenvalue-minimisations  :  7598
 total energy-change (2. order) : 0.2979153E+04  (-0.8913254E+04)
 number of electron     192.0000000 magnetization 
 augmentation part      192.0000000 magnetization 

 Free energy of the ion-electron system (eV)
  ---------------------------------------------------
  alpha Z        PSCENC =       706.11544894
  Ewald energy   TEWEN  =    -16015.65011009
  -Hartree energ DENC   =     -5122.63089507
  -exchange      EXHF   =         0.00000000
  -V(xc)+E(xc)   XCENC  =       735.02990614
  PAW double counting   =     17551.33173514   -17335.69326870
  entropy T*S    EENTRO =         0.00000000
  eigenvalues    EBANDS =      1614.56880475
  atomic energy  EATOM  =     20846.08118249
  Solvation  Ediel_sol  =         0.00000000
  ---------------------------------------------------
  free energy    TOTEN  =      2979.15280360 eV

  energy without entropy =     2979.15280360  energy(sigma->0) =     2979.15280360


--------------------------------------------------------------------------------------------------------




----------------------------------------- Iteration    1(   2)  ---------------------------------------


     EDDAV:  cpu time   29.7400: real time   29.7536
 BZINTS: Fermi energy: 15.350537;192.000000 electrons
         Band energy:-874.619932;  BLOECHL correction: -0.128811
       DOS:  cpu time    0.0720: real time    0.0725
    --------------------------------------------
      LOOP:  cpu time   29.8120: real time   29.8270

 eigenvalue-minimisations  :  7838
 total energy-change (2. order) :-0.2489189E+04  (-0.2414190E+04)
 number of electron     192.0000000 magnetization 
 augmentation part      192.0000000 magnetization 

 Free energy of the ion-electron system (eV)
  ---------------------------------------------------
  alpha Z        PSCENC =       706.11544894
  Ewald energy   TEWEN  =    -16015.65011009
  -Hartree energ DENC   =     -5122.63089507
  -exchange      EXHF   =         0.00000000
  -V(xc)+E(xc)   XCENC  =       735.02990614
  PAW double counting   =     17551.33173514   -17335.69326870
  entropy T*S    EENTRO =         0.00000000
  eigenvalues    EBANDS =      -874.61993197
  atomic energy  EATOM  =     20846.08118249
  Solvation  Ediel_sol  =         0.00000000
  ---------------------------------------------------
  free energy    TOTEN  =       489.96406688 eV

  energy without entropy =      489.96406688  energy(sigma->0) =      489.96406688


--------------------------------------------------------------------------------------------------------




----------------------------------------- Iteration    1(   3)  ---------------------------------------


     EDDAV:  cpu time   29.1680: real time   29.1813
 BZINTS: Fermi energy:  6.523964;192.000000 electrons
         Band energy:***********;  BLOECHL correction:  0.000000
       DOS:  cpu time    0.0160: real time    0.0176
    --------------------------------------------
      LOOP:  cpu time   29.1840: real time   29.2000

 eigenvalue-minimisations  :  8500
 total energy-change (2. order) :-0.5711117E+03  (-0.5352268E+03)
 number of electron     192.0000000 magnetization 
 augmentation part      192.0000000 magnetization 

 Free energy of the ion-electron system (eV)
  ---------------------------------------------------
  alpha Z        PSCENC =       706.11544894
  Ewald energy   TEWEN  =    -16015.65011009
  -Hartree energ DENC   =     -5122.63089507
  -exchange      EXHF   =         0.00000000
  -V(xc)+E(xc)   XCENC  =       735.02990614
  PAW double counting   =     17551.33173514   -17335.69326870
  entropy T*S    EENTRO =         0.00000000
  eigenvalues    EBANDS =     -1445.73165474
  atomic energy  EATOM  =     20846.08118249
  Solvation  Ediel_sol  =         0.00000000
  ---------------------------------------------------
  free energy    TOTEN  =       -81.14765589 eV

  energy without entropy =      -81.14765589  energy(sigma->0) =      -81.14765589


--------------------------------------------------------------------------------------------------------




----------------------------------------- Iteration    1(   4)  ---------------------------------------


     EDDAV:  cpu time   33.4440: real time   33.4613
 BZINTS: Fermi energy:  4.102426;192.000000 electrons
         Band energy:***********;  BLOECHL correction:  0.000000
       DOS:  cpu time    0.0160: real time    0.0133
    --------------------------------------------
      LOOP:  cpu time   33.4600: real time   33.4754

 eigenvalue-minimisations  :  9132
 total energy-change (2. order) :-0.5920104E+02  (-0.5773927E+02)
 number of electron     192.0000000 magnetization 
 augmentation part      192.0000000 magnetization 

 Free energy of the ion-electron system (eV)
  ---------------------------------------------------
  alpha Z        PSCENC =       706.11544894
  Ewald energy   TEWEN  =    -16015.65011009
  -Hartree energ DENC   =     -5122.63089507
  -exchange      EXHF   =         0.00000000
  -V(xc)+E(xc)   XCENC  =       735.02990614
  PAW double counting   =     17551.33173514   -17335.69326870
  entropy T*S    EENTRO =         0.00000000
  eigenvalues    EBANDS =     -1504.93269423
  atomic energy  EATOM  =     20846.08118249
  Solvation  Ediel_sol  =         0.00000000
  ---------------------------------------------------
  free energy    TOTEN  =      -140.34869538 eV

  energy without entropy =     -140.34869538  energy(sigma->0) =     -140.34869538


--------------------------------------------------------------------------------------------------------




----------------------------------------- Iteration    1(   5)  ---------------------------------------


     EDDAV:  cpu time   32.6080: real time   32.6248
 BZINTS: Fermi energy:  4.055138;192.000000 electrons
         Band energy:***********;  BLOECHL correction:  0.000000
       DOS:  cpu time    0.0160: real time    0.0135
    CHARGE:  cpu time    1.7120: real time    1.7127
    MIXING:  cpu time    0.0040: real time    0.0049
    --------------------------------------------
      LOOP:  cpu time   34.3400: real time   34.3569

 eigenvalue-minimisations  :  9596
 total energy-change (2. order) :-0.2505752E+01  (-0.2487192E+01)
 number of electron     191.9999970 magnetization 
 augmentation part       56.7649836 magnetization 

 Broyden mixing:
  rms(total) = 0.26432E+01    rms(broyden)= 0.26424E+01
  rms(prec ) = 0.41397E+01
  weight for this iteration     100.00

 Free energy of the ion-electron system (eV)
  ---------------------------------------------------
  alpha Z        PSCENC =       706.11544894
  Ewald energy   TEWEN  =    -16015.65011009
  -Hartree energ DENC   =     -5122.63089507
  -exchange      EXHF   =         0.00000000
  -V(xc)+E(xc)   XCENC  =       735.02990614
  PAW double counting   =     17551.33173514   -17335.69326870
  entropy T*S    EENTRO =         0.00000000
  eigenvalues    EBANDS =     -1507.43844653
  atomic energy  EATOM  =     20846.08118249
  Solvation  Ediel_sol  =         0.00000000
  ---------------------------------------------------
  free energy    TOTEN  =      -142.85444768 eV

  energy without entropy =     -142.85444768  energy(sigma->0) =     -142.85444768


--------------------------------------------------------------------------------------------------------




----------------------------------------- Iteration    1(   6)  ---------------------------------------


    POTLOK:  cpu time    0.1560: real time    0.1557
    SETDIJ:  cpu time    0.0120: real time    0.0143
     EDDAV:  cpu time   33.2120: real time   33.2259
 BZINTS: Fermi energy:  6.191601;192.000000 electrons
         Band energy:***********;  BLOECHL correction:  0.000000
       DOS:  cpu time    0.0160: real time    0.0132
    CHARGE:  cpu time    1.7720: real time    1.7733
    MIXING:  cpu time    0.0040: real time    0.0064
    --------------------------------------------
      LOOP:  cpu time   35.1720: real time   35.1896

 eigenvalue-minimisations  : 11267
 total energy-change (2. order) : 0.2093321E+02  (-0.9711018E+01)
 number of electron     191.9999973 magnetization 
 augmentation part       54.2900231 magnetization 

 Broyden mixing:
  rms(total) = 0.98147E+00    rms(broyden)= 0.97943E+00
  rms(prec ) = 0.12113E+01
  weight for this iteration     100.00

 eigenvalues of (default mixing * dielectric matrix)
  average eigenvalue GAMMA=   0.7697
  0.7697

 Free energy of the ion-electron system (eV)
  ---------------------------------------------------
  alpha Z        PSCENC =       706.11544894
  Ewald energy   TEWEN  =    -16015.65011009
  -Hartree energ DENC   =     -5298.59951377
  -exchange      EXHF   =         0.00000000
  -V(xc)+E(xc)   XCENC  =       748.85835696
  PAW double counting   =     18021.95303490   -17786.49124748
  entropy T*S    EENTRO =         0.00000000
  eigenvalues    EBANDS =     -1344.18838946
  atomic energy  EATOM  =     20846.08118249
  Solvation  Ediel_sol  =         0.00000000
  ---------------------------------------------------
  free energy    TOTEN  =      -121.92123752 eV

  energy without entropy =     -121.92123752  energy(sigma->0) =     -121.92123752


--------------------------------------------------------------------------------------------------------




----------------------------------------- Iteration    1(   7)  ---------------------------------------


    POTLOK:  cpu time    0.1840: real time    0.1835
    SETDIJ:  cpu time    0.0160: real time    0.0157
     EDDAV:  cpu time   31.6120: real time   31.6257
 BZINTS: Fermi energy:  5.911350;192.000000 electrons
         Band energy:***********;  BLOECHL correction:  0.000000
       DOS:  cpu time    0.0120: real time    0.0134
    CHARGE:  cpu time    1.7600: real time    1.7613
    MIXING:  cpu time    0.0080: real time    0.0063
    --------------------------------------------
      LOOP:  cpu time   33.5920: real time   33.6070

 eigenvalue-minimisations  :  8324
 total energy-change (2. order) :-0.2912939E+00  (-0.1467898E+01)
 number of electron     191.9999973 magnetization 
 augmentation part       54.1834584 magnetization 

 Broyden mixing:
  rms(total) = 0.59980E+00    rms(broyden)= 0.59979E+00
  rms(prec ) = 0.72897E+00
  weight for this iteration     100.00

 eigenvalues of (default mixing * dielectric matrix)
  average eigenvalue GAMMA=   1.5320
  0.9584  2.1055

 Free energy of the ion-electron system (eV)
  ---------------------------------------------------
  alpha Z        PSCENC =       706.11544894
  Ewald energy   TEWEN  =    -16015.65011009
  -Hartree energ DENC   =     -5265.88657688
  -exchange      EXHF   =         0.00000000
  -V(xc)+E(xc)   XCENC  =       746.51741626
  PAW double counting   =     18435.40328853   -18198.44601731
  entropy T*S    EENTRO =         0.00000000
  eigenvalues    EBANDS =     -1376.34716332
  atomic energy  EATOM  =     20846.08118249
  Solvation  Ediel_sol  =         0.00000000
  ---------------------------------------------------
  free energy    TOTEN  =      -122.21253138 eV

  energy without entropy =     -122.21253138  energy(sigma->0) =     -122.21253138


--------------------------------------------------------------------------------------------------------




----------------------------------------- Iteration    1(   8)  ---------------------------------------


    POTLOK:  cpu time    0.1560: real time    0.1584
    SETDIJ:  cpu time    0.0160: real time    0.0146
     EDDAV:  cpu time   36.7880: real time   36.8054
 BZINTS: Fermi energy:  5.613346;192.000000 electrons
         Band energy:***********;  BLOECHL correction:  0.000000
       DOS:  cpu time    0.0120: real time    0.0134
    CHARGE:  cpu time    1.7800: real time    1.7799
    MIXING:  cpu time    0.0080: real time    0.0058
    --------------------------------------------
      LOOP:  cpu time   38.7600: real time   38.7783

 eigenvalue-minimisations  : 11249
 total energy-change (2. order) :-0.6122534E-02  (-0.3840722E+00)
 number of electron     191.9999972 magnetization 
 augmentation part       54.4901017 magnetization 

 Broyden mixing:
  rms(total) = 0.31684E+00    rms(broyden)= 0.31658E+00
  rms(prec ) = 0.47637E+00
  weight for this iteration     100.00

 eigenvalues of (default mixing * dielectric matrix)
  average eigenvalue GAMMA=   1.3992
  2.4418  0.8780  0.8780

 Free energy of the ion-electron system (eV)
  ---------------------------------------------------
  alpha Z        PSCENC =       706.11544894
  Ewald energy   TEWEN  =    -16015.65011009
  -Hartree energ DENC   =     -5253.55051801
  -exchange      EXHF   =         0.00000000
  -V(xc)+E(xc)   XCENC  =       745.06627876
  PAW double counting   =     18783.90076783   -18545.26813733
  entropy T*S    EENTRO =         0.00000000
  eigenvalues    EBANDS =     -1388.91356648
  atomic energy  EATOM  =     20846.08118249
  Solvation  Ediel_sol  =         0.00000000
  ---------------------------------------------------
  free energy    TOTEN  =      -122.21865391 eV

  energy without entropy =     -122.21865391  energy(sigma->0) =     -122.21865391


--------------------------------------------------------------------------------------------------------




----------------------------------------- Iteration    1(   9)  ---------------------------------------


    POTLOK:  cpu time    0.1800: real time    0.1792
    SETDIJ:  cpu time    0.0160: real time    0.0158
     EDDAV:  cpu time   35.4080: real time   35.4369
 BZINTS: Fermi energy:  5.860498;192.000000 electrons
         Band energy:***********;  BLOECHL correction:  0.000000
       DOS:  cpu time    0.0120: real time    0.0135
    CHARGE:  cpu time    1.7160: real time    1.7139
    MIXING:  cpu time    0.0040: real time    0.0066
    --------------------------------------------
      LOOP:  cpu time   37.3360: real time   37.3673

 eigenvalue-minimisations  : 10468
 total energy-change (2. order) : 0.2343099E+00  (-0.8854587E-01)
 number of electron     191.9999972 magnetization 
 augmentation part       54.2786225 magnetization 

 Broyden mixing:
  rms(total) = 0.36820E-01    rms(broyden)= 0.36541E-01
  rms(prec ) = 0.42506E-01
  weight for this iteration     100.00

 eigenvalues of (default mixing * dielectric matrix)
  average eigenvalue GAMMA=   1.3446
  2.3821  1.1751  0.9106  0.9106

 Free energy of the ion-electron system (eV)
  ---------------------------------------------------
  alpha Z        PSCENC =       706.11544894
  Ewald energy   TEWEN  =    -16015.65011009
  -Hartree energ DENC   =     -5270.97449303
  -exchange      EXHF   =         0.00000000
  -V(xc)+E(xc)   XCENC  =       746.39082846
  PAW double counting   =     18853.51139872   -18613.25576141
  entropy T*S    EENTRO =         0.00000000
  eigenvalues    EBANDS =     -1374.20283807
  atomic energy  EATOM  =     20846.08118249
  Solvation  Ediel_sol  =         0.00000000
  ---------------------------------------------------
  free energy    TOTEN  =      -121.98434399 eV

  energy without entropy =     -121.98434399  energy(sigma->0) =     -121.98434399


--------------------------------------------------------------------------------------------------------




----------------------------------------- Iteration    1(  10)  ---------------------------------------


    POTLOK:  cpu time    0.1640: real time    0.1628
    SETDIJ:  cpu time    0.0160: real time    0.0156
     EDDAV:  cpu time   27.5760: real time   27.5809
 BZINTS: Fermi energy:  5.845933;192.000000 electrons
         Band energy:***********;  BLOECHL correction:  0.000000
       DOS:  cpu time    0.0120: real time    0.0133
    CHARGE:  cpu time    1.7640: real time    1.7613
    MIXING:  cpu time    0.0040: real time    0.0057
    --------------------------------------------
      LOOP:  cpu time   29.5360: real time   29.5404

 eigenvalue-minimisations  :  8310
 total energy-change (2. order) :-0.9365002E-02  (-0.8877519E-02)
 number of electron     191.9999973 magnetization 
 augmentation part       54.2432997 magnetization 

 Broyden mixing:
  rms(total) = 0.17375E-01    rms(broyden)= 0.17339E-01
  rms(prec ) = 0.21722E-01
  weight for this iteration     100.00

 eigenvalues of (default mixing * dielectric matrix)
  average eigenvalue GAMMA=   1.4442
  2.2424  2.2424  0.8857  0.8857  0.9649

 Free energy of the ion-electron system (eV)
  ---------------------------------------------------
  alpha Z        PSCENC =       706.11544894
  Ewald energy   TEWEN  =    -16015.65011009
  -Hartree energ DENC   =     -5270.52696648
  -exchange      EXHF   =         0.00000000
  -V(xc)+E(xc)   XCENC  =       746.36897298
  PAW double counting   =     18855.41396667   -18615.40034493
  entropy T*S    EENTRO =         0.00000000
  eigenvalues    EBANDS =     -1374.39585856
  atomic energy  EATOM  =     20846.08118249
  Solvation  Ediel_sol  =         0.00000000
  ---------------------------------------------------
  free energy    TOTEN  =      -121.99370899 eV

  energy without entropy =     -121.99370899  energy(sigma->0) =     -121.99370899


--------------------------------------------------------------------------------------------------------




----------------------------------------- Iteration    1(  11)  ---------------------------------------


    POTLOK:  cpu time    0.1560: real time    0.1574
    SETDIJ:  cpu time    0.0160: real time    0.0152
     EDDAV:  cpu time   41.1880: real time   41.1983
 BZINTS: Fermi energy:  5.839368;192.000000 electrons
         Band energy:***********;  BLOECHL correction:  0.000000
       DOS:  cpu time    0.0160: real time    0.0134
    CHARGE:  cpu time    1.8360: real time    1.8378
    MIXING:  cpu time    0.0080: real time    0.0079
    --------------------------------------------
      LOOP:  cpu time   43.2200: real time   43.2310

 eigenvalue-minimisations  : 11948
 total energy-change (2. order) :-0.1369789E-02  (-0.4831781E-03)
 number of electron     191.9999972 magnetization 
 augmentation part       54.2393004 magnetization 

 Broyden mixing:
  rms(total) = 0.82968E-02    rms(broyden)= 0.82923E-02
  rms(prec ) = 0.12208E-01
  weight for this iteration     100.00

 eigenvalues of (default mixing * dielectric matrix)
  average eigenvalue GAMMA=   1.3934
  2.4704  2.4704  0.8934  0.8934  0.8165  0.8165

 Free energy of the ion-electron system (eV)
  ---------------------------------------------------
  alpha Z        PSCENC =       706.11544894
  Ewald energy   TEWEN  =    -16015.65011009
  -Hartree energ DENC   =     -5270.79859569
  -exchange      EXHF   =         0.00000000
  -V(xc)+E(xc)   XCENC  =       746.36769021
  PAW double counting   =     18844.91726360   -18605.30291364
  entropy T*S    EENTRO =         0.00000000
  eigenvalues    EBANDS =     -1373.72504459
  atomic energy  EATOM  =     20846.08118249
  Solvation  Ediel_sol  =         0.00000000
  ---------------------------------------------------
  free energy    TOTEN  =      -121.99507878 eV

  energy without entropy =     -121.99507878  energy(sigma->0) =     -121.99507878


--------------------------------------------------------------------------------------------------------




----------------------------------------- Iteration    1(  12)  ---------------------------------------


    POTLOK:  cpu time    0.1800: real time    0.1815
    SETDIJ:  cpu time    0.0160: real time    0.0154
     EDDAV:  cpu time   38.7240: real time   38.7328
 BZINTS: Fermi energy:  5.832412;192.000000 electrons
         Band energy:***********;  BLOECHL correction:  0.000000
       DOS:  cpu time    0.0120: real time    0.0131
    CHARGE:  cpu time    1.7520: real time    1.7522
    MIXING:  cpu time    0.0080: real time    0.0076
    --------------------------------------------
      LOOP:  cpu time   40.6920: real time   40.7038

 eigenvalue-minimisations  : 10404
 total energy-change (2. order) :-0.4758763E-04  (-0.4978423E-04)
 number of electron     191.9999972 magnetization 
 augmentation part       54.2420185 magnetization 

 Broyden mixing:
  rms(total) = 0.33510E-02    rms(broyden)= 0.33488E-02
  rms(prec ) = 0.50956E-02
  weight for this iteration     100.00

 eigenvalues of (default mixing * dielectric matrix)
  average eigenvalue GAMMA=   1.3788
  2.6746  2.2751  1.2008  0.8902  0.8902  0.8603  0.8603

 Free energy of the ion-electron system (eV)
  ---------------------------------------------------
  alpha Z        PSCENC =       706.11544894
  Ewald energy   TEWEN  =    -16015.65011009
  -Hartree energ DENC   =     -5270.68277617
  -exchange      EXHF   =         0.00000000
  -V(xc)+E(xc)   XCENC  =       746.35438323
  PAW double counting   =     18842.47834255   -18602.97734811
  entropy T*S    EENTRO =         0.00000000
  eigenvalues    EBANDS =     -1373.71424920
  atomic energy  EATOM  =     20846.08118249
  Solvation  Ediel_sol  =         0.00000000
  ---------------------------------------------------
  free energy    TOTEN  =      -121.99512637 eV

  energy without entropy =     -121.99512637  energy(sigma->0) =     -121.99512637


--------------------------------------------------------------------------------------------------------




----------------------------------------- Iteration    1(  13)  ---------------------------------------


    POTLOK:  cpu time    0.1760: real time    0.1758
    SETDIJ:  cpu time    0.0160: real time    0.0157
     EDDAV:  cpu time   36.2200: real time   36.2283
 BZINTS: Fermi energy:  5.828368;192.000000 electrons
         Band energy:***********;  BLOECHL correction:  0.000000
       DOS:  cpu time    0.0120: real time    0.0132
    CHARGE:  cpu time    1.7080: real time    1.7062
    MIXING:  cpu time    0.0040: real time    0.0065
    --------------------------------------------
      LOOP:  cpu time   38.1360: real time   38.1466

 eigenvalue-minimisations  : 10724
 total energy-change (2. order) :-0.1780254E-04  (-0.3678930E-04)
 number of electron     191.9999973 magnetization 
 augmentation part       54.2384661 magnetization 

 Broyden mixing:
  rms(total) = 0.29554E-02    rms(broyden)= 0.29534E-02
  rms(prec ) = 0.41943E-02
  weight for this iteration     100.00

 eigenvalues of (default mixing * dielectric matrix)
  average eigenvalue GAMMA=   1.4472
  2.5742  2.5742  1.9398  1.0687  0.8944  0.8944  0.8158  0.8158

 Free energy of the ion-electron system (eV)
  ---------------------------------------------------
  alpha Z        PSCENC =       706.11544894
  Ewald energy   TEWEN  =    -16015.65011009
  -Hartree energ DENC   =     -5271.05353005
  -exchange      EXHF   =         0.00000000
  -V(xc)+E(xc)   XCENC  =       746.37907661
  PAW double counting   =     18840.03987559   -18600.53517621
  entropy T*S    EENTRO =         0.00000000
  eigenvalues    EBANDS =     -1373.37191144
  atomic energy  EATOM  =     20846.08118249
  Solvation  Ediel_sol  =         0.00000000
  ---------------------------------------------------
  free energy    TOTEN  =      -121.99514417 eV

  energy without entropy =     -121.99514417  energy(sigma->0) =     -121.99514417


--------------------------------------------------------------------------------------------------------




----------------------------------------- Iteration    1(  14)  ---------------------------------------


    POTLOK:  cpu time    0.1560: real time    0.1548
    SETDIJ:  cpu time    0.0160: real time    0.0149
     EDDAV:  cpu time   36.9160: real time   36.9274
 BZINTS: Fermi energy:  5.824620;192.000000 electrons
         Band energy:***********;  BLOECHL correction:  0.000000
       DOS:  cpu time    0.0160: real time    0.0133
    CHARGE:  cpu time    1.8320: real time    1.8352
    MIXING:  cpu time    0.0080: real time    0.0071
    --------------------------------------------
      LOOP:  cpu time   38.9440: real time   38.9537

 eigenvalue-minimisations  : 10244
 total energy-change (2. order) : 0.1225348E-04  (-0.6015715E-05)
 number of electron     191.9999972 magnetization 
 augmentation part       54.2393293 magnetization 

 Broyden mixing:
  rms(total) = 0.64127E-03    rms(broyden)= 0.64059E-03
  rms(prec ) = 0.84245E-03
  weight for this iteration     100.00

 eigenvalues of (default mixing * dielectric matrix)
  average eigenvalue GAMMA=   1.4372
  2.8912  2.4087  2.2418  0.9868  0.9868  0.8952  0.8952  0.8145  0.8145

 Free energy of the ion-electron system (eV)
  ---------------------------------------------------
  alpha Z        PSCENC =       706.11544894
  Ewald energy   TEWEN  =    -16015.65011009
  -Hartree energ DENC   =     -5271.01754342
  -exchange      EXHF   =         0.00000000
  -V(xc)+E(xc)   XCENC  =       746.37270242
  PAW double counting   =     18836.69986193   -18597.23463695
  entropy T*S    EENTRO =         0.00000000
  eigenvalues    EBANDS =     -1373.36203723
  atomic energy  EATOM  =     20846.08118249
  Solvation  Ediel_sol  =         0.00000000
  ---------------------------------------------------
  free energy    TOTEN  =      -121.99513192 eV

  energy without entropy =     -121.99513192  energy(sigma->0) =     -121.99513192


--------------------------------------------------------------------------------------------------------




----------------------------------------- Iteration    1(  15)  ---------------------------------------


    POTLOK:  cpu time    0.1840: real time    0.1816
    SETDIJ:  cpu time    0.0160: real time    0.0159
     EDDAV:  cpu time   29.4280: real time   29.4375
 BZINTS: Fermi energy:  5.822038;192.000000 electrons
         Band energy:***********;  BLOECHL correction:  0.000000
       DOS:  cpu time    0.0160: real time    0.0135
    --------------------------------------------
      LOOP:  cpu time   29.7400: real time   29.7486

 eigenvalue-minimisations  :  7324
 total energy-change (2. order) :-0.1975677E-06  (-0.9175517E-06)
 number of electron     191.9999972 magnetization 
 augmentation part       54.2393293 magnetization 

 Free energy of the ion-electron system (eV)
  ---------------------------------------------------
  alpha Z        PSCENC =       706.11544894
  Ewald energy   TEWEN  =    -16015.65011009
  -Hartree energ DENC   =     -5271.05671859
  -exchange      EXHF   =         0.00000000
  -V(xc)+E(xc)   XCENC  =       746.37426339
  PAW double counting   =     18836.06930827   -18596.60881485
  entropy T*S    EENTRO =         0.00000000
  eigenvalues    EBANDS =     -1373.31969167
  atomic energy  EATOM  =     20846.08118249
  Solvation  Ediel_sol  =         0.00000000
  ---------------------------------------------------
  free energy    TOTEN  =      -121.99513211 eV

  energy without entropy =     -121.99513211  energy(sigma->0) =     -121.99513211


--------------------------------------------------------------------------------------------------------




 the core state eigenenergies are
   1-  1s -90628.6192  2s -16271.3037  2p -13911.6710  3s  -3919.2676  3p  -3245.4973
       3d  -2570.4159  4s   -891.0221  4p   -670.3562  4d   -418.5949  4f   -141.3750
       5s   -146.5107  5p    -84.6222
   2-  1s -90628.6192  2s -16271.3037  2p -13911.6711  3s  -3919.2676  3p  -3245.4973
       3d  -2570.4159  4s   -891.0222  4p   -670.3562  4d   -418.5949  4f   -141.3750
       5s   -146.5107  5p    -84.6222
   3-  1s -90628.6192  2s -16271.3037  2p -13911.6711  3s  -3919.2676  3p  -3245.4973
       3d  -2570.4159  4s   -891.0222  4p   -670.3562  4d   -418.5949  4f   -141.3750
       5s   -146.5107  5p    -84.6222
   4-  1s -90628.6192  2s -16271.3037  2p -13911.6711  3s  -3919.2676  3p  -3245.4973
       3d  -2570.4159  4s   -891.0221  4p   -670.3562  4d   -418.5949  4f   -141.3750
       5s   -146.5107  5p    -84.6222
   5-  1s -90628.7547  2s -16271.4402  2p -13911.8074  3s  -3919.4026  3p  -3245.6322
       3d  -2570.5513  4s   -891.1542  4p   -670.4879  4d   -418.7264  4f   -141.5062
       5s   -146.6365  5p    -84.7458
   6-  1s -90628.7547  2s -16271.4402  2p -13911.8074  3s  -3919.4026  3p  -3245.6322
       3d  -2570.5513  4s   -891.1542  4p   -670.4879  4d   -418.7264  4f   -141.5062
       5s   -146.6365  5p    -84.7459
   7-  1s -90628.7547  2s -16271.4402  2p -13911.8074  3s  -3919.4026  3p  -3245.6322
       3d  -2570.5513  4s   -891.1542  4p   -670.4879  4d   -418.7264  4f   -141.5062
       5s   -146.6365  5p    -84.7459
   8-  1s -90628.7547  2s -16271.4402  2p -13911.8074  3s  -3919.4026  3p  -3245.6322
       3d  -2570.5513  4s   -891.1542  4p   -670.4879  4d   -418.7264  4f   -141.5062
       5s   -146.6365  5p    -84.7458
   9-  1s   -499.3570
  10-  1s   -499.3570
  11-  1s   -499.3570
  12-  1s   -499.3570
  13-  1s   -499.2383
  14-  1s   -499.2383
  15-  1s   -499.2383
  16-  1s   -499.2383
  17-  1s   -499.3216
  18-  1s   -499.3216
  19-  1s   -499.3216
  20-  1s   -499.3216
 
 E-fermi :   5.8220     XC(G=0): -10.7926     alpha+bet :-12.4156


 k-point     1 :       0.0000    0.0000    0.0000
  band No.  band energies     occupation 
      1     -16.4115      2.00000
      2     -16.3699      2.00000
      3     -16.3566      2.00000
      4     -16.3493      2.00000
      5     -16.3318      2.00000
      6     -16.3079      2.00000
      7     -16.3068      2.00000
      8     -16.2681      2.00000
      9     -16.1961      2.00000
     10     -16.1769      2.00000
     11     -16.1675      2.00000
     12     -16.1637      2.00000
     13     -16.1435      2.00000
     14     -16.1356      2.00000
     15     -16.1334      2.00000
     16     -16.1315      2.00000
     17     -16.1246      2.00000
     18     -16.1199      2.00000
     19     -16.1158      2.00000
     20     -16.1158      2.00000
     21     -16.1041      2.00000
     22     -16.0903      2.00000
     23     -16.0902      2.00000
     24     -16.0816      2.00000
     25     -16.0660      2.00000
     26     -16.0474      2.00000
     27     -16.0311      2.00000
     28     -16.0303      2.00000
     29     -16.0188      2.00000
     30     -16.0133      2.00000
     31     -16.0116      2.00000
     32     -16.0075      2.00000
     33     -15.9998      2.00000
     34     -15.9984      2.00000
     35     -15.9912      2.00000
     36     -15.9817      2.00000
     37     -15.9728      2.00000
     38     -15.9666      2.00000
     39     -15.9610      2.00000
     40     -15.9529      2.00000
     41     -12.7533      2.00000
     42     -12.1426      2.00000
     43     -11.4786      2.00000
     44     -11.2812      2.00000
     45     -11.1126      2.00000
     46     -10.9099      2.00000
     47     -10.9034      2.00000
     48     -10.8301      2.00000
     49     -10.7162      2.00000
     50     -10.4810      2.00000
     51     -10.3700      2.00000
     52     -10.3616      2.00000
     53      -4.4344      2.00000
     54      -4.4233      2.00000
     55      -4.2130      2.00000
     56      -4.0645      2.00000
     57      -3.5040      2.00000
     58      -3.4473      2.00000
     59      -2.3602      2.00000
     60      -1.6097      2.00000
     61       0.4615      2.00000
     62       0.8047      2.00000
     63       1.2602      2.00000
     64       1.2965      2.00000
     65       1.4912      2.00000
     66       1.5707      2.00000
     67       1.6539      2.00000
     68       1.9657      2.00000
     69       2.0383      2.00000
     70       2.1308      2.00000
     71       2.4196      2.00000
     72       2.6681      2.00000
     73       2.6906      2.00000
     74       3.1254      2.00000
     75       3.1701      2.00000
     76       3.1961      2.00000
     77       3.2884      2.00000
     78       3.3338      2.00000
     79       3.4749      2.00000
     80       3.4771      2.00000
     81       3.7110      2.00000
     82       3.8170      2.00000
     83       3.8737      2.00000
     84       4.1498      2.00000
     85       4.1934      2.00000
     86       4.2107      2.00000
     87       4.3666      2.00000
     88       4.5430      2.00000
     89       4.5495      2.00000
     90       4.9157      2.00000
     91       4.9901      2.00000
     92       5.0187      2.00000
     93       5.2763      2.00000
     94       5.2916      2.00000
     95       5.4244      2.00000
     96       5.4905      2.00000
     97       7.9635      0.00000
     98       8.2998      0.00000
     99       9.2439      0.00000
    100       9.6683      0.00000
    101       9.7463      0.00000
    102       9.8355      0.00000
    103      10.1808      0.00000
    104      10.3372      0.00000
    105      10.7506      0.00000
    106      10.9372      0.00000
    107      11.0304      0.00000
    108      11.0805      0.00000
    109      11.0984      0.00000
    110      11.1956      0.00000
    111      11.4346      0.00000
    112      11.6133      0.00000
    113      11.9237      0.00000
    114      12.2622      0.00000
    115      12.3439      0.00000

 k-point     2 :       0.2000    0.0000    0.0000
  band No.  band energies     occupation 
      1     -16.3982      2.00000
      2     -16.3926      2.00000
      3     -16.3668      2.00000
      4     -16.3323      2.00000
      5     -16.3189      2.00000
      6     -16.3169      2.00000
      7     -16.2826      2.00000
      8     -16.2712      2.00000
      9     -16.1919      2.00000
     10     -16.1855      2.00000
     11     -16.1638      2.00000
     12     -16.1578      2.00000
     13     -16.1554      2.00000
     14     -16.1534      2.00000
     15     -16.1364      2.00000
     16     -16.1321      2.00000
     17     -16.1216      2.00000
     18     -16.1175      2.00000
     19     -16.1160      2.00000
     20     -16.1053      2.00000
     21     -16.1029      2.00000
     22     -16.0983      2.00000
     23     -16.0916      2.00000
     24     -16.0793      2.00000
     25     -16.0649      2.00000
     26     -16.0474      2.00000
     27     -16.0375      2.00000
     28     -16.0289      2.00000
     29     -16.0189      2.00000
     30     -16.0157      2.00000
     31     -16.0093      2.00000
     32     -16.0055      2.00000
     33     -16.0027      2.00000
     34     -15.9952      2.00000
     35     -15.9869      2.00000
     36     -15.9835      2.00000
     37     -15.9726      2.00000
     38     -15.9720      2.00000
     39     -15.9626      2.00000
     40     -15.9572      2.00000
     41     -12.6406      2.00000
     42     -12.0681      2.00000
     43     -11.4572      2.00000
     44     -11.3449      2.00000
     45     -11.1913      2.00000
     46     -10.9720      2.00000
     47     -10.9286      2.00000
     48     -10.8550      2.00000
     49     -10.6896      2.00000
     50     -10.6253      2.00000
     51     -10.3738      2.00000
     52     -10.2838      2.00000
     53      -4.4226      2.00000
     54      -4.4092      2.00000
     55      -4.0902      2.00000
     56      -4.0377      2.00000
     57      -3.5362      2.00000
     58      -3.2188      2.00000
     59      -2.4646      2.00000
     60      -1.8497      2.00000
     61       0.5767      2.00000
     62       0.8542      2.00000
     63       1.2834      2.00000
     64       1.3951      2.00000
     65       1.4785      2.00000
     66       1.4967      2.00000
     67       1.7519      2.00000
     68       1.9406      2.00000
     69       2.0425      2.00000
     70       2.3778      2.00000
     71       2.4532      2.00000
     72       2.6126      2.00000
     73       2.6785      2.00000
     74       2.9840      2.00000
     75       3.0282      2.00000
     76       3.1613      2.00000
     77       3.1912      2.00000
     78       3.2603      2.00000
     79       3.4200      2.00000
     80       3.4691      2.00000
     81       3.7322      2.00000
     82       3.8556      2.00000
     83       3.9234      2.00000
     84       4.1195      2.00000
     85       4.1256      2.00000
     86       4.1824      2.00000
     87       4.2898      2.00000
     88       4.4325      2.00000
     89       4.5526      2.00000
     90       5.0586      2.00000
     91       5.0600      2.00000
     92       5.0881      2.00000
     93       5.1981      2.00000
     94       5.3208      2.00000
     95       5.4528      2.00000
     96       5.5716      2.00000
     97       8.1402      0.00000
     98       8.2320      0.00000
     99       9.3414      0.00000
    100       9.4298      0.00000
    101       9.8842      0.00000
    102       9.8843      0.00000
    103      10.3613      0.00000
    104      10.3854      0.00000
    105      10.5360      0.00000
    106      10.6534      0.00000
    107      10.9272      0.00000
    108      11.0318      0.00000
    109      11.0887      0.00000
    110      11.2293      0.00000
    111      11.6805      0.00000
    112      11.8098      0.00000
    113      12.0496      0.00000
    114      12.1014      0.00000
    115      12.3117      0.00000

 k-point     3 :       0.4000    0.0000    0.0000
  band No.  band energies     occupation 
      1     -16.4015      2.00000
      2     -16.4001      2.00000
      3     -16.3360      2.00000
      4     -16.3347      2.00000
      5     -16.3218      2.00000
      6     -16.3137      2.00000
      7     -16.2763      2.00000
      8     -16.2410      2.00000
      9     -16.2302      2.00000
     10     -16.1863      2.00000
     11     -16.1690      2.00000
     12     -16.1665      2.00000
     13     -16.1432      2.00000
     14     -16.1424      2.00000
     15     -16.1365      2.00000
     16     -16.1347      2.00000
     17     -16.1223      2.00000
     18     -16.1220      2.00000
     19     -16.1167      2.00000
     20     -16.1153      2.00000
     21     -16.1033      2.00000
     22     -16.1002      2.00000
     23     -16.0890      2.00000
     24     -16.0810      2.00000
     25     -16.0514      2.00000
     26     -16.0499      2.00000
     27     -16.0485      2.00000
     28     -16.0400      2.00000
     29     -16.0170      2.00000
     30     -16.0137      2.00000
     31     -16.0054      2.00000
     32     -16.0009      2.00000
     33     -15.9990      2.00000
     34     -15.9984      2.00000
     35     -15.9897      2.00000
     36     -15.9851      2.00000
     37     -15.9750      2.00000
     38     -15.9749      2.00000
     39     -15.9642      2.00000
     40     -15.9626      2.00000
     41     -12.3288      2.00000
     42     -11.9980      2.00000
     43     -11.5102      2.00000
     44     -11.4463      2.00000
     45     -11.3704      2.00000
     46     -11.2240      2.00000
     47     -10.8095      2.00000
     48     -10.8022      2.00000
     49     -10.7271      2.00000
     50     -10.6381      2.00000
     51     -10.3969      2.00000
     52     -10.3203      2.00000
     53      -4.3066      2.00000
     54      -4.2910      2.00000
     55      -4.1501      2.00000
     56      -3.9903      2.00000
     57      -3.3299      2.00000
     58      -2.9181      2.00000
     59      -2.6709      2.00000
     60      -2.3048      2.00000
     61       0.7498      2.00000
     62       0.8839      2.00000
     63       1.2388      2.00000
     64       1.3163      2.00000
     65       1.6888      2.00000
     66       1.7251      2.00000
     67       1.8746      2.00000
     68       1.9793      2.00000
     69       2.1030      2.00000
     70       2.3968      2.00000
     71       2.4977      2.00000
     72       2.5701      2.00000
     73       2.7498      2.00000
     74       2.8964      2.00000
     75       2.9133      2.00000
     76       3.0318      2.00000
     77       3.0770      2.00000
     78       3.1805      2.00000
     79       3.3102      2.00000
     80       3.4693      2.00000
     81       3.6030      2.00000
     82       3.8006      2.00000
     83       3.8407      2.00000
     84       3.9203      2.00000
     85       4.0360      2.00000
     86       4.0544      2.00000
     87       4.3913      2.00000
     88       4.4591      2.00000
     89       4.7948      2.00000
     90       4.9889      2.00000
     91       5.0613      2.00000
     92       5.1540      2.00000
     93       5.2710      2.00000
     94       5.3152      2.00000
     95       5.4686      2.00000
     96       5.6215      2.00000
     97       8.4540      0.00000
     98       8.7423      0.00000
     99       9.2133      0.00000
    100       9.3734      0.00000
    101       9.7294      0.00000
    102       9.8207      0.00000
    103       9.9112      0.00000
    104       9.9858      0.00000
    105      10.3855      0.00000
    106      10.4728      0.00000
    107      10.8029      0.00000
    108      11.2075      0.00000
    109      11.4895      0.00000
    110      11.7400      0.00000
    111      11.7782      0.00000
    112      11.8503      0.00000
    113      12.1540      0.00000
    114      12.2113      0.00000
    115      12.4000      0.00000

 k-point     4 :       0.0000    0.2500    0.0000
  band No.  band energies     occupation 
      1     -16.3994      2.00000
      2     -16.3849      2.00000
      3     -16.3691      2.00000
      4     -16.3650      2.00000
      5     -16.3429      2.00000
      6     -16.3248      2.00000
      7     -16.2693      2.00000
      8     -16.2675      2.00000
      9     -16.1721      2.00000
     10     -16.1711      2.00000
     11     -16.1642      2.00000
     12     -16.1593      2.00000
     13     -16.1483      2.00000
     14     -16.1407      2.00000
     15     -16.1383      2.00000
     16     -16.1275      2.00000
[...]
     34     -15.9947      2.00000
     35     -15.9825      2.00000
     36     -15.9825      2.00000
     37     -15.9794      2.00000
     38     -15.9794      2.00000
     39     -15.9682      2.00000
     40     -15.9682      2.00000
     41     -12.2037      2.00000
     42     -12.2037      2.00000
     43     -11.8189      2.00000
     44     -11.8189      2.00000
     45     -11.1532      2.00000
     46     -11.1532      2.00000
     47     -10.7153      2.00000
     48     -10.7153      2.00000
     49     -10.4806      2.00000
     50     -10.4805      2.00000
     51     -10.3430      2.00000
     52     -10.3430      2.00000
     53      -4.2605      2.00000
     54      -4.2605      2.00000
     55      -3.9990      2.00000
     56      -3.9990      2.00000
     57      -3.2271      2.00000
     58      -3.2271      2.00000
     59      -2.5971      2.00000
     60      -2.5971      2.00000
     61       0.6858      2.00000
     62       0.6858      2.00000
     63       1.0582      2.00000
     64       1.0582      2.00000
     65       1.3669      2.00000
     66       1.3669      2.00000
     67       1.6929      2.00000
     68       1.6929      2.00000
     69       2.2132      2.00000
     70       2.2132      2.00000
     71       2.5155      2.00000
     72       2.5155      2.00000
     73       2.7232      2.00000
     74       2.7232      2.00000
     75       3.3002      2.00000
     76       3.3002      2.00000
     77       3.4679      2.00000
     78       3.4679      2.00000
     79       3.6397      2.00000
     80       3.6397      2.00000
     81       3.8496      2.00000
     82       3.8496      2.00000
     83       4.1605      2.00000
     84       4.1605      2.00000
     85       4.3183      2.00000
     86       4.3183      2.00000
     87       4.4256      2.00000
     88       4.4256      2.00000
     89       4.8186      2.00000
     90       4.8186      2.00000
     91       5.0372      2.00000
     92       5.0372      2.00000
     93       5.2960      2.00000
     94       5.2960      2.00000
     95       5.5623      2.00000
     96       5.5623      2.00000
     97       8.5246      0.00000
     98       8.5246      0.00000
     99       8.7163      0.00000
    100       8.7163      0.00000
    101       9.6447      0.00000
    102       9.6447      0.00000
    103      10.0893      0.00000
    104      10.0893      0.00000
    105      10.7663      0.00000
    106      10.7663      0.00000
    107      11.0210      0.00000
    108      11.0210      0.00000
    109      11.3082      0.00000
    110      11.3082      0.00000
    111      11.7327      0.00000
    112      11.7327      0.00000
    113      12.1125      0.00000
    114      12.1126      0.00000
    115      12.3146      0.00000

 k-point    33 :       0.4000    0.5000    0.5000
  band No.  band energies     occupation 
      1     -16.4081      2.00000
      2     -16.4081      2.00000
      3     -16.3747      2.00000
      4     -16.3747      2.00000
      5     -16.3100      2.00000
      6     -16.3100      2.00000
      7     -16.2440      2.00000
      8     -16.2440      2.00000
      9     -16.1828      2.00000
     10     -16.1828      2.00000
     11     -16.1671      2.00000
     12     -16.1671      2.00000
     13     -16.1414      2.00000
     14     -16.1414      2.00000
     15     -16.1364      2.00000
     16     -16.1364      2.00000
     17     -16.1213      2.00000
     18     -16.1213      2.00000
     19     -16.1100      2.00000
     20     -16.1100      2.00000
     21     -16.0944      2.00000
     22     -16.0944      2.00000
     23     -16.0860      2.00000
     24     -16.0860      2.00000
     25     -16.0613      2.00000
     26     -16.0613      2.00000
     27     -16.0379      2.00000
     28     -16.0379      2.00000
     29     -16.0166      2.00000
     30     -16.0166      2.00000
     31     -16.0092      2.00000
     32     -16.0092      2.00000
     33     -15.9956      2.00000
     34     -15.9956      2.00000
     35     -15.9886      2.00000
     36     -15.9886      2.00000
     37     -15.9757      2.00000
     38     -15.9757      2.00000
     39     -15.9650      2.00000
     40     -15.9650      2.00000
     41     -12.0800      2.00000
     42     -12.0800      2.00000
     43     -11.6864      2.00000
     44     -11.6864      2.00000
     45     -11.3054      2.00000
     46     -11.3054      2.00000
     47     -10.9152      2.00000
     48     -10.9152      2.00000
     49     -10.4736      2.00000
     50     -10.4736      2.00000
     51     -10.3149      2.00000
     52     -10.3149      2.00000
     53      -4.3139      2.00000
     54      -4.3139      2.00000
     55      -3.7334      2.00000
     56      -3.7334      2.00000
     57      -3.3872      2.00000
     58      -3.3872      2.00000
     59      -2.6275      2.00000
     60      -2.6275      2.00000
     61       0.6882      2.00000
     62       0.6882      2.00000
     63       1.2742      2.00000
     64       1.2742      2.00000
     65       1.4911      2.00000
     66       1.4911      2.00000
     67       1.8671      2.00000
     68       1.8671      2.00000
     69       2.1870      2.00000
     70       2.1870      2.00000
     71       2.4826      2.00000
     72       2.4826      2.00000
     73       2.8999      2.00000
     74       2.8999      2.00000
     75       3.2069      2.00000
     76       3.2069      2.00000
     77       3.3804      2.00000
     78       3.3804      2.00000
     79       3.5370      2.00000
     80       3.5370      2.00000
     81       3.9592      2.00000
     82       3.9592      2.00000
     83       4.1148      2.00000
     84       4.1148      2.00000
     85       4.2792      2.00000
     86       4.2792      2.00000
     87       4.3494      2.00000
     88       4.3494      2.00000
     89       4.7386      2.00000
     90       4.7386      2.00000
     91       4.9124      2.00000
     92       4.9124      2.00000
     93       5.1043      2.00000
     94       5.1043      2.00000
     95       5.3346      2.00000
     96       5.3346      2.00000
     97       8.2940      0.00000
     98       8.2940      0.00000
     99       8.9656      0.00000
    100       8.9656      0.00000
    101       9.8897      0.00000
    102       9.8897      0.00000
    103      10.1986      0.00000
    104      10.1986      0.00000
    105      11.0524      0.00000
    106      11.0524      0.00000
    107      11.2347      0.00000
    108      11.2347      0.00000
    109      11.4761      0.00000
    110      11.4761      0.00000
    111      11.7503      0.00000
    112      11.7503      0.00000
    113      11.9775      0.00000
    114      11.9776      0.00000
    115      12.2240      0.00000


--------------------------------------------------------------------------------------------------------


 soft charge-density along one line, spin component           1
         0         1         2         3         4         5         6         7         8         9
 total charge-density along one line
 
 pseudopotential strength for first ion, spin component:           1
-17.300   0.013  -0.003   0.009   0.012   3.646  -0.006   0.002
  0.013 -17.331   0.007   0.001   0.003  -0.006   3.663  -0.004
 -0.003   0.007 -17.305  -0.011  -0.009   0.002  -0.004   3.650
  0.009   0.001  -0.011 -17.287   0.010  -0.005  -0.000   0.006
  0.012   0.003  -0.009   0.010 -17.294  -0.006  -0.002   0.004
  3.646  -0.006   0.002  -0.005  -0.006   5.946   0.003  -0.001
 -0.006   3.663  -0.004  -0.000  -0.002   0.003   5.940   0.001
  0.002  -0.004   3.650   0.006   0.004  -0.001   0.001   5.944
 -0.005  -0.000   0.006   3.641  -0.004   0.001   0.000   0.000
 -0.006  -0.002   0.004  -0.004   3.642   0.001  -0.000  -0.003
  0.000   0.000   0.001   0.008   0.005  -0.001  -0.002   0.004
 -0.001  -0.001  -0.002  -0.012  -0.008   0.001   0.002  -0.005
  0.014   0.016  -0.001   0.000  -0.001  -0.002  -0.002  -0.000
  0.000   0.001   0.018   0.014   0.000   0.000   0.000  -0.002
  0.001   0.000  -0.008   0.016   0.014   0.001   0.000   0.001
  0.024   0.026  -0.001   0.000  -0.001   0.000  -0.001  -0.001
  0.000   0.001   0.029   0.022   0.000   0.000   0.001   0.000
  0.002   0.000  -0.014   0.026   0.023   0.001   0.000   0.001
 total augmentation occupancy for first ion, spin component:           1
  2.002   0.000   0.000  -0.000  -0.001   0.002   0.001   0.000  -0.001  -0.002   0.000   0.000  -0.021   0.000   0.002   0.009
  0.000   2.002  -0.000   0.000  -0.000   0.001   0.003  -0.001   0.000  -0.001   0.000   0.001  -0.025  -0.000   0.000   0.012
  0.000  -0.000   2.002   0.001  -0.001   0.000  -0.001   0.002   0.002  -0.002   0.000  -0.001   0.002  -0.027   0.012  -0.000
 -0.000   0.000   0.001   2.002   0.000  -0.001   0.000   0.002   0.003   0.002   0.003   0.003   0.000  -0.023  -0.025  -0.001
 -0.001  -0.000  -0.001   0.000   2.001  -0.001  -0.001  -0.002   0.002   0.001   0.002   0.003   0.005  -0.000  -0.023  -0.002
  0.002   0.001   0.000  -0.001  -0.001   0.044   0.008  -0.002   0.010   0.022   0.001  -0.000   0.060   0.015   0.026  -0.007
  0.001   0.003  -0.001   0.000  -0.001   0.008   0.025   0.007  -0.003   0.011  -0.000   0.001   0.040   0.007   0.014  -0.005
  0.000  -0.001   0.002   0.002  -0.002  -0.002   0.007   0.049  -0.026   0.011   0.004  -0.003  -0.012   0.031  -0.068   0.001
 -0.001   0.000   0.002   0.003   0.002   0.010  -0.003  -0.026   0.057   0.003   0.027  -0.009   0.015  -0.004   0.076  -0.002
 -0.002  -0.001  -0.002   0.002   0.001   0.022   0.011   0.011   0.003   0.055   0.014  -0.002   0.007   0.021   0.052  -0.001
  0.000   0.000   0.000   0.003   0.002   0.001  -0.000   0.004   0.027   0.014   2.005  -0.028  -0.004  -0.124  -0.115  -0.002
  0.000   0.001  -0.001   0.003   0.003  -0.000   0.001  -0.003  -0.009  -0.002  -0.028   0.035   0.009   0.078   0.073  -0.001
 -0.021  -0.025   0.002   0.000   0.005   0.060   0.040  -0.012   0.015   0.007  -0.004   0.009   0.924   0.020   0.009  -0.093
  0.000  -0.000  -0.027  -0.023  -0.000   0.015   0.007   0.031  -0.004   0.021  -0.124   0.078   0.020   1.018   0.091  -0.002
  0.002   0.000   0.012  -0.025  -0.023   0.026   0.014  -0.068   0.076   0.052  -0.115   0.073   0.009   0.091   1.098  -0.001
  0.009   0.012  -0.000  -0.001  -0.002  -0.007  -0.005   0.001  -0.002  -0.001  -0.002  -0.001  -0.093  -0.002  -0.001   0.011
 -0.001   0.000   0.015   0.013  -0.001  -0.002  -0.000  -0.004  -0.000  -0.003   0.005  -0.006  -0.002  -0.095  -0.003   0.000
 -0.001  -0.001  -0.003   0.009   0.010  -0.003  -0.002   0.008  -0.010  -0.007   0.004  -0.006  -0.001  -0.003  -0.108   0.000


------------------------ aborting loop because EDIFF is reached ----------------------------------------


 


 total charge     
 
# of ion     s       p       d       tot
----------------------------------------
  1        1.611   0.942  10.041  12.594
  2        1.611   0.943  10.041  12.595
  3        1.611   0.942  10.041  12.594
  4        1.611   0.943  10.041  12.595
  5        1.597   0.976  10.037  12.609
  6        1.596   0.976  10.037  12.609
  7        1.597   0.976  10.037  12.609
  8        1.596   0.976  10.037  12.609
  9        1.576   3.372   0.000   4.948
 10        1.576   3.370   0.000   4.946
 11        1.576   3.372   0.000   4.948
 12        1.576   3.370   0.000   4.946
 13        1.574   3.384   0.000   4.958
 14        1.574   3.384   0.000   4.959
 15        1.574   3.384   0.000   4.958
 16        1.574   3.384   0.000   4.959
 17        1.578   3.372   0.000   4.950
 18        1.578   3.372   0.000   4.950
 19        1.578   3.372   0.000   4.950
 20        1.578   3.372   0.000   4.950
------------------------------------------------
tot       31.744  48.181  80.310 160.234
 
    CHARGE:  cpu time    1.8560: real time    1.8543
    FORLOC:  cpu time    0.0400: real time    0.0416
    FORNL :  cpu time   16.2920: real time   16.2951
    STRESS:  cpu time   12.8280: real time   12.8307
    FORCOR:  cpu time    0.2000: real time    0.2001
    FORHAR:  cpu time    0.0760: real time    0.0735
    MIXING:  cpu time    0.0040: real time    0.0061
    OFIELD:  cpu time    0.0000: real time    0.0001

  FORCE on cell =-STRESS in cart. coord.  units (eV):
  Direction    XX          YY          ZZ          XY          YZ          ZX
  --------------------------------------------------------------------------------------
  Alpha Z   706.11545   706.11545   706.11545
  Ewald   -5025.58074 -5083.40390 -5906.70418   -27.53351     0.00003     0.00003
  Hartree  1928.59117  1954.14324  1388.32847    -6.40151    -0.00001     0.00000
  E(xc)    -932.43506  -932.35303  -932.83100    -0.00549     0.00000    -0.00000
  Local   -1029.26700 -1001.70325   380.28085    31.20707    -0.00000    -0.00003
  n-local   520.81193   502.82268   514.78330    -1.98791     0.02201    -0.00991
  augment  1132.72743  1139.13373  1130.49139     0.49553    -0.00000    -0.00000
  Kinetic  2699.04193  2715.26541  2719.53459     4.23184    -0.11455     0.04214
  Fock        0.00000     0.00000     0.00000     0.00000     0.00000     0.00000
  -------------------------------------------------------------------------------------
  Total       0.00509     0.02033    -0.00114     0.00603     0.00000     0.00000
  in kB       0.02518     0.10052    -0.00562     0.02981     0.00000     0.00000
  external pressure =        0.04 kB  Pullay stress =        0.00 kB


 VOLUME and BASIS-vectors are now :
 -----------------------------------------------------------------------------
  energy-cutoff  :      500.00
  volume of cell :      324.10
      direct lattice vectors                 reciprocal lattice vectors
     5.855148995 -0.012831520  0.000000000     0.170955348  0.075519687  0.000000000
    -3.030829110  6.860945371  0.000000000     0.000319725  0.145893748  0.000000000
     0.000000000  0.000000000  8.075712265     0.000000000  0.000000000  0.123828087

  length of vectors
     5.855163055  7.500566410  8.075712265     0.186892894  0.145894098  0.123828087


 FORCES acting on ions
    electron-ion (+dipol)            ewald-force                    non-local-force                 convergence-correction
 -----------------------------------------------------------------------------------------------
   0.158E+03 -.352E+02 0.122E+03   -.167E+03 0.344E+02 -.132E+03   0.893E+01 0.770E+00 0.977E+01   0.186E-03 -.639E-03 0.522E-03
   -.158E+03 0.352E+02 0.122E+03   0.167E+03 -.344E+02 -.132E+03   -.893E+01 -.770E+00 0.977E+01   -.186E-03 0.639E-03 0.522E-03
   -.158E+03 0.352E+02 -.122E+03   0.167E+03 -.344E+02 0.132E+03   -.893E+01 -.770E+00 -.977E+01   -.186E-03 0.639E-03 -.522E-03
   0.158E+03 -.352E+02 -.122E+03   -.167E+03 0.344E+02 0.132E+03   0.893E+01 0.770E+00 -.977E+01   0.186E-03 -.639E-03 -.522E-03
   -.596E+02 0.327E+02 0.223E+03   0.654E+02 -.316E+02 -.236E+03   -.580E+01 -.112E+01 0.128E+02   -.309E-03 0.448E-03 0.790E-03
   0.596E+02 -.327E+02 0.223E+03   -.654E+02 0.316E+02 -.236E+03   0.580E+01 0.112E+01 0.128E+02   0.309E-03 -.448E-03 0.790E-03
   0.596E+02 -.327E+02 -.223E+03   -.654E+02 0.316E+02 0.236E+03   0.580E+01 0.112E+01 -.128E+02   0.309E-03 -.448E-03 -.790E-03
   -.596E+02 0.327E+02 -.223E+03   0.654E+02 -.316E+02 0.236E+03   -.580E+01 -.112E+01 -.128E+02   -.309E-03 0.448E-03 -.790E-03
   -.642E+02 -.521E+02 0.118E+03   0.691E+02 0.551E+02 -.130E+03   -.482E+01 -.300E+01 0.118E+02   0.525E-04 0.330E-04 -.785E-04
   0.642E+02 0.521E+02 0.118E+03   -.691E+02 -.551E+02 -.130E+03   0.482E+01 0.300E+01 0.118E+02   -.525E-04 -.330E-04 -.786E-04
   0.642E+02 0.521E+02 -.118E+03   -.691E+02 -.551E+02 0.130E+03   0.482E+01 0.300E+01 -.118E+02   -.525E-04 -.330E-04 0.786E-04
   -.642E+02 -.521E+02 -.118E+03   0.691E+02 0.551E+02 0.130E+03   -.482E+01 -.300E+01 -.118E+02   0.525E-04 0.330E-04 0.785E-04
   0.899E+02 0.686E+02 0.224E+02   -.974E+02 -.746E+02 -.219E+02   0.746E+01 0.598E+01 -.481E+00   -.944E-04 -.344E-04 -.288E-04
   -.899E+02 -.686E+02 0.224E+02   0.974E+02 0.746E+02 -.219E+02   -.746E+01 -.598E+01 -.481E+00   0.944E-04 0.344E-04 -.288E-04
   -.899E+02 -.686E+02 -.224E+02   0.974E+02 0.746E+02 0.219E+02   -.746E+01 -.598E+01 0.481E+00   0.944E-04 0.344E-04 0.288E-04
   0.899E+02 0.686E+02 -.224E+02   -.974E+02 -.746E+02 0.219E+02   0.746E+01 0.598E+01 0.481E+00   -.944E-04 -.344E-04 0.288E-04
   0.200E+02 0.237E+02 0.113E+02   -.228E+02 -.264E+02 -.156E+02   0.283E+01 0.270E+01 0.433E+01   -.860E-04 0.595E-04 0.361E-04
   -.200E+02 -.237E+02 0.113E+02   0.228E+02 0.264E+02 -.156E+02   -.283E+01 -.270E+01 0.433E+01   0.860E-04 -.595E-04 0.360E-04
   -.200E+02 -.237E+02 -.113E+02   0.228E+02 0.264E+02 0.156E+02   -.283E+01 -.270E+01 -.433E+01   0.860E-04 -.595E-04 -.360E-04
   0.200E+02 0.237E+02 -.113E+02   -.228E+02 -.264E+02 0.156E+02   0.283E+01 0.270E+01 -.433E+01   -.860E-04 0.595E-04 -.361E-04
 -----------------------------------------------------------------------------------------------
   -.304E-03 -.842E-03 0.199E-03   -.149E-12 -.110E-12 0.941E-13   -.133E-14 0.178E-14 0.000E+00   -.821E-09 -.726E-09 -.777E-09
 
 
 POSITION                                       TOTAL-FORCE (eV/Angst)
 -----------------------------------------------------------------------------------
      0.54275      1.89065      3.67911        -0.001126     -0.003040      0.001308
      0.86941      1.53341      7.71696         0.001126      0.003040      0.001308
      2.28157      4.95746      4.39661         0.001126      0.003040     -0.001308
      1.95491      5.31471      0.35875        -0.001126     -0.003040     -0.001308
     -0.60116      5.94982      2.51888         0.000166      0.001475      0.001002
     -1.01751      4.33518      6.55673        -0.000166     -0.001475      0.001002
      3.42548      0.89829      5.55684        -0.000166     -0.001475     -0.001002
      3.84183      2.51294      1.51898         0.000166      0.001475     -0.001002
      4.30836      0.08439      3.77321        -0.000611      0.000667     -0.000191
      2.95895      3.32683      7.81106         0.000611     -0.000667     -0.000191
     -1.48404      6.76372      4.30251         0.000611     -0.000667      0.000191
     -0.13463      3.52128      0.26465        -0.000611      0.000667      0.000191
      0.38097      4.27286      3.62416        -0.000355     -0.000262     -0.002232
     -1.99964      6.01214      7.66201         0.000355      0.000262     -0.002232
      2.44335      2.57526      4.45155         0.000355      0.000262      0.002232
      4.82396      0.83597      0.41370        -0.000355     -0.000262      0.002232
      3.30056      4.84071      2.38474        -0.000392      0.000484      0.000399
      0.93592      5.43146      6.42259         0.000392     -0.000484      0.000399
     -0.47624      2.00740      5.69098         0.000392     -0.000484     -0.000399
      1.88840      1.41666      1.65312        -0.000392      0.000484     -0.000399
 -----------------------------------------------------------------------------------
    total drift:                               -0.000304     -0.000842      0.000199


--------------------------------------------------------------------------------------------------------



  FREE ENERGIE OF THE ION-ELECTRON SYSTEM (eV)
  ---------------------------------------------------
  free  energy   TOTEN  =      -121.99513264 eV

  energy  without entropy=     -121.99513264  energy(sigma->0) =     -121.99513264
 
 d Force =-0.2600205E-05[-0.419E-05,-0.101E-05]  d Energy = 0.1304656E-05-0.390E-05
 d Force = 0.1812383E-01[ 0.181E-01, 0.182E-01]  d Ewald  =-0.9819786E+00 0.100E+01


--------------------------------------------------------------------------------------------------------


    POTLOK:  cpu time    0.1760: real time    0.1739


--------------------------------------------------------------------------------------------------------


