 vasp.5.4.1 24Jun15 (build Sep 15 2015 10:29:54) complex

 executed on           IFC91_ompi date 2017.09.01  10:03:21
 running on    8 total cores
 distrk:  each k-point on    8 cores,    1 groups
 distr:  one band on NCORES_PER_BAND=   4 cores,    2 groups


--------------------------------------------------------------------------------------------------------


 INCAR:
 POTCAR:    PAW_PBE Zn 06Sep2000
 POTCAR:    PAW_PBE O 08Apr2002
 POTCAR:    PAW_PBE Zn 06Sep2000
   VRHFIN =Zn: d10 p2
   LEXCH  = PE
   EATOM  =  1748.8345 eV,  128.5357 Ry

   TITEL  = PAW_PBE Zn 06Sep2000
   LULTRA =        F    use ultrasoft PP ?
   IUNSCR =        1    unscreen: 0-lin 1-nonlin 2-no
   RPACOR =    2.000    partial core radius
   POMASS =   65.390; ZVAL   =   12.000    mass and valenz
   RCORE  =    2.300    outmost cutoff radius
   RWIGS  =    2.400; RWIGS  =    1.270    wigner-seitz radius (au A)
   ENMAX  =  276.723; ENMIN  =  207.542 eV
   RCLOC  =    1.828    cutoff for local pot
   LCOR   =        T    correct aug charges
   LPAW   =        T    paw PP
   EAUG   =  575.892
   DEXC   =    0.000
   RMAX   =    2.347    core radius for proj-oper
   RAUG   =    1.300    factor for augmentation sphere
   RDEP   =    2.324    radius for radial grids
   RDEPT  =    1.788    core radius for aug-charge

   Atomic configuration
    9 entries
     n  l   j            E        occ.
     1  0  0.50     -9524.6913   2.0000
     2  0  0.50     -1158.1882   2.0000
     2  1  1.50     -1003.8506   6.0000
     3  0  0.50      -129.2194   2.0000
     3  1  1.50       -83.3890   6.0000
     3  2  2.50       -10.1410  10.0000
     4  0  0.50        -5.9785   2.0000
     4  1  0.50        -4.0817   0.0000
     4  3  2.50        -1.3606   0.0000
   Description
     l       E           TYP  RCUT    TYP  RCUT
     2    -10.1410010     23  2.300
     2    -11.5015836     23  2.300
     0     -5.9785163     23  2.300
     0      1.1858015     23  2.300
     1     -2.7211652     23  2.300
     1     13.2444212     23  2.300
  local pseudopotential read in
  partial core-charges read in
  partial kinetic energy density read in
  atomic valenz-charges read in
  non local Contribution for L=           2  read in
    real space projection operators read in
  non local Contribution for L=           2  read in
    real space projection operators read in
  non local Contribution for L=           0  read in
    real space projection operators read in
  non local Contribution for L=           0  read in
    real space projection operators read in
  non local Contribution for L=           1  read in
    real space projection operators read in
  non local Contribution for L=           1  read in
    real space projection operators read in
    PAW grid and wavefunctions read in

   number of l-projection  operators is LMAX  =           6
   number of lm-projection operators is LMMAX =          18

 POTCAR:    PAW_PBE O 08Apr2002
   VRHFIN =O: s2p4
   LEXCH  = PE
   EATOM  =   432.3788 eV,   31.7789 Ry

   TITEL  = PAW_PBE O 08Apr2002
   LULTRA =        F    use ultrasoft PP ?
   IUNSCR =        1    unscreen: 0-lin 1-nonlin 2-no
   RPACOR =    1.200    partial core radius
   POMASS =   16.000; ZVAL   =    6.000    mass and valenz
   RCORE  =    1.520    outmost cutoff radius
   RWIGS  =    1.550; RWIGS  =    0.820    wigner-seitz radius (au A)
   ENMAX  =  400.000; ENMIN  =  300.000 eV
   ICORE  =        2    local potential
   LCOR   =        T    correct aug charges
   LPAW   =        T    paw PP
   EAUG   =  605.392
   DEXC   =    0.000
   RMAX   =    1.553    core radius for proj-oper
   RAUG   =    1.300    factor for augmentation sphere
   RDEP   =    1.550    radius for radial grids
   RDEPT  =    1.329    core radius for aug-charge

   Atomic configuration
    4 entries
     n  l   j            E        occ.
     1  0  0.50      -514.6923   2.0000
     2  0  0.50       -23.9615   2.0000
     2  1  0.50        -9.0305   4.0000
     3  2  1.50        -9.5241   0.0000
   Description
     l       E           TYP  RCUT    TYP  RCUT
     0    -23.9615318     23  1.200
     0     -9.5240782     23  1.200
     1     -9.0304911     23  1.520
     1      8.1634956     23  1.520
     2     -9.5240782      7  1.500
  local pseudopotential read in
  partial core-charges read in
  partial kinetic energy density read in
  kinetic energy density of atom read in
  atomic valenz-charges read in
  non local Contribution for L=           0  read in
    real space projection operators read in
  non local Contribution for L=           0  read in
    real space projection operators read in
  non local Contribution for L=           1  read in
    real space projection operators read in
  non local Contribution for L=           1  read in
    real space projection operators read in
    PAW grid and wavefunctions read in

   number of l-projection  operators is LMAX  =           4
   number of lm-projection operators is LMMAX =           8


 -----------------------------------------------------------------------------
|                                                                             |
|  ADVICE TO THIS USER RUNNING 'VASP/VAMP'   (HEAR YOUR MASTER'S VOICE ...):  |
|                                                                             |
|      You have a (more or less) 'small supercell' and for smaller cells      |
|      it is recommended  to use the reciprocal-space projection scheme!      |
|      The real space optimization is not  efficient for small cells and it   |
|      is also less accurate ...                                              |
|      Therefore set LREAL=.FALSE. in the  INCAR file                         |
|                                                                             |
 -----------------------------------------------------------------------------

 Optimization of the real space projectors (new method)

 maximal supplied QI-value         = 16.25
 optimisation between [QCUT,QGAM] = [ 11.38, 22.75] = [ 36.24,144.96] Ry
 Optimized for a Real-space Cutoff    1.39 Angstroem

   l    n(q)    QCUT    max X(q) W(low)/X(q) W(high)/X(q)  e(spline)
   2      8    11.376    46.356    0.27E-03    0.53E-04    0.10E-06
   2      8    11.376    41.843    0.28E-03    0.56E-04    0.10E-06
   0      9    11.376    48.958    0.76E-04    0.12E-03    0.19E-06
   0      9    11.376    32.776    0.72E-04    0.11E-03    0.18E-06
   1      9    11.376    17.787    0.48E-03    0.13E-03    0.16E-06
   1      9    11.376    14.435    0.43E-03    0.12E-03    0.15E-06
 Optimization of the real space projectors (new method)

 maximal supplied QI-value         = 24.76
 optimisation between [QCUT,QGAM] = [ 11.39, 22.77] = [ 36.31,145.25] Ry
 Optimized for a Real-space Cutoff    1.00 Angstroem

   l    n(q)    QCUT    max X(q) W(low)/X(q) W(high)/X(q)  e(spline)
   0      7    11.387    20.381    0.39E-03    0.13E-02    0.15E-06
   0      7    11.387    15.268    0.42E-03    0.14E-02    0.17E-06
   1      6    11.387     5.964    0.41E-03    0.11E-02    0.17E-06
   1      6    11.387     5.382    0.39E-03    0.87E-03    0.15E-06

 -----------------------------------------------------------------------------
|                                                                             |
|  ADVICE TO THIS USER RUNNING 'VASP/VAMP'   (HEAR YOUR MASTER'S VOICE ...):  |
|                                                                             |
|      You enforced a specific xc-type in the INCAR file,                     |
|      a different type was found on the POTCAR file                          |
|          I HOPE YOU KNOW, WHAT YOU ARE  DOING                               |
|                                                                             |
 -----------------------------------------------------------------------------

  PAW_PBE Zn 06Sep2000                  :
 energy of atom  1       EATOM=-1748.8345
 kinetic energy error for atom=    0.0029 (will be added to EATOM!!)
  PAW_PBE O 08Apr2002                   :
 energy of atom  2       EATOM= -432.3788
 kinetic energy error for atom=    0.0224 (will be added to EATOM!!)


 POSCAR: Zn O
  positions in direct lattice
  velocities in cartesian coordinates
 exchange correlation table for  LEXCH =       14
   RHO(1)=    0.500       N(1)  =     2000
   RHO(2)=  100.500       N(2)  =     4000



--------------------------------------------------------------------------------------------------------


 ion  position               nearest neighbor table
   1  0.000  0.000  0.000-   3 2.15   4 2.15   4 2.15   3 2.15
   2  0.500  0.500  0.500-   3 2.15   4 2.15   3 2.15   4 2.15
   3  0.250  0.500  0.000-   1 2.15   2 2.15   2 2.15   1 2.15
   4  0.750  0.000  0.500-   1 2.15   2 2.15   1 2.15   2 2.15

  LATTYP: Found a simple tetragonal cell.
 ALAT       =     3.5065124364
 C/A-ratio  =     1.4158315706

  Lattice vectors:

 A1 = (   0.0000000000,   3.5065124364,   0.0000000000)
 A2 = (   0.0000000000,   0.0000000000,  -3.5065124364)
 A3 = (  -4.9646310102,   0.0000000000,   0.0000000000)


Analysis of symmetry for initial positions (statically):
=====================================================================
 Subroutine PRICEL returns following result:

  LATTYP: Found a body centered tetragonal cell.
 ALAT       =     3.5065124364
 C/A-ratio  =     1.4158315706

  Lattice vectors:

 A1 = (   2.4823155051,   1.7532562182,  -1.7532562182)
 A2 = (   2.4823155051,  -1.7532562182,   1.7532562182)
 A3 = (  -2.4823155051,  -1.7532562182,  -1.7532562182)

   2 primitive cells build up your supercell.


 Routine SETGRP: Setting up the symmetry group for a
 simple tetragonal supercell.


 Subroutine GETGRP returns: Found  8 space group operations
 (whereof  8 operations were pure point group operations)
 out of a pool of 16 trial point group operations.


The static configuration has the point symmetry D_2d.


Analysis of symmetry for dynamics (positions and initial velocities):
=====================================================================
 Subroutine PRICEL returns following result:

  LATTYP: Found a body centered tetragonal cell.
 ALAT       =     3.5065124364
 C/A-ratio  =     1.4158315706

  Lattice vectors:

 A1 = (   2.4823155051,   1.7532562182,  -1.7532562182)
 A2 = (   2.4823155051,  -1.7532562182,   1.7532562182)
 A3 = (  -2.4823155051,  -1.7532562182,  -1.7532562182)

   2 primitive cells build up your supercell.


 Routine SETGRP: Setting up the symmetry group for a
 simple tetragonal supercell.


 Subroutine GETGRP returns: Found  8 space group operations
 (whereof  8 operations were pure point group operations)
 out of a pool of 16 trial point group operations.


The dynamic configuration has the point symmetry D_2d.



Automatic generation of k-mesh.
 generate k-points for:    3    4    4
Space group operators:
 irot       det(A)        alpha          n_x          n_y          n_z        tau_x        tau_y        tau_z
    1     1.000000     0.000000     1.000000     0.000000     0.000000     0.000000     0.000000     0.000000
    2    -1.000000    90.000000     1.000000     0.000000     0.000000     0.000000     0.000000     0.000000
    3     1.000000   180.000000     1.000000     0.000000     0.000000     0.000000     0.000000     0.000000
    4    -1.000000    90.000000    -1.000000     0.000000     0.000000     0.000000     0.000000     0.000000
    5    -1.000000   180.000000     0.000000     0.000000     1.000000     0.000000     0.000000     0.000000
    6     1.000000   180.000000     0.000000    -0.707107     0.707107     0.000000     0.000000     0.000000
    7    -1.000000   180.000000     0.000000     1.000000     0.000000     0.000000     0.000000     0.000000
    8     1.000000   180.000000     0.000000     0.707107     0.707107     0.000000     0.000000     0.000000

 Subroutine IBZKPT returns following result:
 ===========================================

 Found     12 irreducible k-points:

 Following reciprocal coordinates:
            Coordinates               Weight
  0.000000  0.000000  0.000000      1.000000
  0.333333  0.000000  0.000000      2.000000
  0.000000  0.250000  0.000000      4.000000
  0.333333  0.250000  0.000000      8.000000
  0.000000  0.500000  0.000000      2.000000
  0.333333  0.500000  0.000000      4.000000
  0.000000  0.250000  0.250000      4.000000
  0.333333  0.250000  0.250000      8.000000
  0.000000  0.500000  0.250000      4.000000
  0.333333  0.500000  0.250000      8.000000
  0.000000  0.500000  0.500000      1.000000
  0.333333  0.500000  0.500000      2.000000

 Following cartesian coordinates:
            Coordinates               Weight
  0.000000  0.000000  0.000000      1.000000
  0.067142  0.000000  0.000000      2.000000
  0.000000  0.071296  0.000000      4.000000
  0.067142  0.071296  0.000000      8.000000
  0.000000  0.142592  0.000000      2.000000
  0.067142  0.142592  0.000000      4.000000
  0.000000  0.071296  0.071296      4.000000
  0.067142  0.071296  0.071296      8.000000
  0.000000  0.142592  0.071296      4.000000
  0.067142  0.142592  0.071296      8.000000
  0.000000  0.142592  0.142592      1.000000
  0.067142  0.142592  0.142592      2.000000

 TETIRR: Found     74 inequivalent tetrahedra from      288


--------------------------------------------------------------------------------------------------------




 Dimension of arrays:
   k-points           NKPTS =     12   k-points in BZ     NKDIM =     12   number of bands    NBANDS=     22
   number of dos      NEDOS =    301   number of ions     NIONS =      4
   non local maximal  LDIM  =      6   non local SUM 2l+1 LMDIM =     18
   total plane-waves  NPLWV =  11200
   max r-space proj   IRMAX =   2112   max aug-charges    IRDMAX=    883
   dimension x,y,z NGX =    28 NGY =   20 NGZ =   20
   dimension x,y,z NGXF=    28 NGYF=   20 NGZF=   20
   support grid    NGXF=    28 NGYF=   20 NGZF=   20
   ions per type =               2   2
 NGX,Y,Z   is equivalent  to a cutoff of   9.38,  9.48,  9.48 a.u.
 NGXF,Y,Z  is equivalent  to a cutoff of   9.38,  9.48,  9.48 a.u.


 I would recommend the setting:
   dimension x,y,z NGX =    27 NGY =   19 NGZ =   19
 SYSTEM =  Name
 POSCAR =  Zn O

 Startparameter for this run:
   NWRITE =      2    write-flag & timer
   PREC   = single    normal or accurate (medium, high low for compatibility)
   ISTART =      0    job   : 0-new  1-cont  2-samecut
   ICHARG =      2    charge: 1-file 2-atom 10-const
   ISPIN  =      1    spin polarized calculation?
   LNONCOLLINEAR =      F non collinear calculations
   LSORBIT =      F    spin-orbit coupling
   INIWAV =      1    electr: 0-lowe 1-rand  2-diag
   LASPH  =      F    aspherical Exc in radial PAW
   METAGGA=      F    non-selfconsistent MetaGGA calc.

 Electronic Relaxation 1
   ENCUT  =  500.0 eV  36.75 Ry    6.06 a.u.   9.05  6.39  6.39*2*pi/ulx,y,z
   ENINI  =  500.0     initial cutoff
   ENAUG  =  605.4 eV  augmentation charge cutoff
   NELM   =     60;   NELMIN=  2; NELMDL= -5     # of ELM steps
   EDIFF  = 0.1E-05   stopping-criterion for ELM
   LREAL  =      T    real-space projection
   NLSPLINE    = F    spline interpolate recip. space projectors
   LCOMPAT=      F    compatible to vasp.4.4
   GGA_COMPAT  = T    GGA compatible to vasp.4.4-vasp.4.6
   LMAXPAW     = -100 max onsite density
   LMAXMIX     =    2 max onsite mixed and CHGCAR
   VOSKOWN=      0    Vosko Wilk Nusair interpolation
   ROPT   =   -0.00050  -0.00050
 Ionic relaxation
   EDIFFG = 0.1E-02   stopping-criterion for IOM
   NSW    =      0    number of steps for IOM
   NBLOCK =      1;   KBLOCK =      1    inner block; outer block
   IBRION =     -1    ionic relax: 0-MD 1-quasi-New 2-CG
   NFREE  =      0    steps in history (QN), initial steepest desc. (CG)
   ISIF   =      3    stress and relaxation
   IWAVPR =     10    prediction:  0-non 1-charg 2-wave 3-comb
   ISYM   =      2    0-nonsym 1-usesym 2-fastsym
   LCORR  =      T    Harris-Foulkes like correction to forces

   POTIM  = 0.5000    time-step for ionic-motion
   TEIN   =    0.0    initial temperature
   TEBEG  =    0.0;   TEEND  =   0.0 temperature during run
   SMASS  =  -3.00    Nose mass-parameter (am)
   estimated Nose-frequenzy (Omega)   =  0.10E-29 period in steps =****** mass=  -0.563E-27a.u.
   SCALEE = 1.0000    scale energy and forces
   NPACO  =    256;   APACO  = 16.0  distance and # of slots for P.C.
   PSTRESS=    0.0 pullay stress

  Mass of Ions in am
   POMASS =  65.39 16.00
  Ionic Valenz
   ZVAL   =  12.00  6.00
  Atomic Wigner-Seitz radii
   RWIGS  =  -1.00 -1.00
  virtual crystal weights
   VCA    =   1.00  1.00
   NELECT =      36.0000    total number of electrons
   NUPDOWN=      -1.0000    fix difference up-down

 DOS related values:
   EMIN   =  10.00;   EMAX   =-10.00  energy-range for DOS
   EFERMI =   0.00
   ISMEAR =    -5;   SIGMA  =   0.10  broadening in eV -4-tet -1-fermi 0-gaus

 Electronic relaxation 2 (details)
   IALGO  =     38    algorithm
   LDIAG  =      T    sub-space diagonalisation (order eigenvalues)
   LSUBROT=      F    optimize rotation matrix (better conditioning)
   TURBO    =      0    0=normal 1=particle mesh
   IRESTART =      0    0=no restart 2=restart with 2 vectors
   NREBOOT  =      0    no. of reboots
   NMIN     =      0    reboot dimension
   EREF     =   0.00    reference energy to select bands
   IMIX   =      4    mixing-type and parameters
     AMIX     =   0.40;   BMIX     =  1.00
     AMIX_MAG =   1.60;   BMIX_MAG =  1.00
     AMIN     =   0.01
     WC   =   100.;   INIMIX=   1;  MIXPRE=   1;  MAXMIX= -45

 Intra band minimization:
   WEIMIN = 0.0000     energy-eigenvalue tresh-hold
   EBREAK =  0.11E-07  absolut break condition
   DEPER  =   0.30     relativ break condition

   TIME   =   0.40     timestep for ELM

  volume/ion in A,a.u.               =      15.26       102.99
  Fermi-wavevector in a.u.,A,eV,Ry     =   1.372871  2.594350 25.643920  1.884775
  Thomas-Fermi vector in A             =   2.498439

 Write flags
   LWAVE  =      T    write WAVECAR
   LCHARG =      T    write CHGCAR
   LVTOT  =      F    write LOCPOT, total local potential
   LVHAR  =      F    write LOCPOT, Hartree potential only
   LELF   =      F    write electronic localiz. function (ELF)
   LORBIT =     10    0 simple, 1 ext, 2 COOP (PROOUT)


 Dipole corrections
   LMONO  =      F    monopole corrections only (constant potential shift)
   LDIPOL =      F    correct potential (dipole corrections)
   IDIPOL =      0    1-x, 2-y, 3-z, 4-all directions
   EPSILON=  1.0000000 bulk dielectric constant

 Core level calculations are selected ICORELEVEL =  1
 Exchange correlation treatment:
   GGA     =    PS    GGA type
   LEXCH   =    14    internal setting for exchange type
   VOSKOWN=      0    Vosko Wilk Nusair interpolation
   LHFCALC =     F    Hartree Fock is set to
   LHFONE  =     F    Hartree Fock one center treatment
   AEXX    =    0.0000 exact exchange contribution

 Linear response parameters
   LEPSILON=     F    determine dielectric tensor
   LRPA    =     F    only Hartree local field effects (RPA)
   LNABLA  =     F    use nabla operator in PAW spheres
   LVEL    =     F    velocity operator in full k-point grid
   LINTERFAST=   F  fast interpolation
   KINTER  =     0    interpolate to denser k-point grid
   CSHIFT  =0.1000    complex shift for real part using Kramers Kronig
   OMEGAMAX=  -1.0    maximum frequency
   DEG_THRESHOLD= 0.2000000E-02 threshold for treating states as degnerate
   RTIME   =    0.100 relaxation time in fs

 Orbital magnetization related:
   ORBITALMAG=     F  switch on orbital magnetization
   LCHIMAG   =     F  perturbation theory with respect to B field
   DQ        =  0.001000  dq finite difference perturbation B field



--------------------------------------------------------------------------------------------------------


 Static calculation
 charge density and potential will be updated during run
 non-spin polarized calculation
 Variant of blocked Davidson
 Davidson routine will perform the subspace rotation
 perform sub-space diagonalisation
    after iterative eigenvector-optimisation
 modified Broyden-mixing scheme, WC =      100.0
 initial mixing is a Kerker type mixing with AMIX =  0.4000 and BMIX =      1.0000
 Hartree-type preconditioning will be used
 using additional bands            4
 real space projection scheme for non local part
 use partial core corrections
 calculate Harris-corrections to forces
   (improved forces if not selfconsistent)
 use gradient corrections
 use of overlap-Matrix (Vanderbilt PP)
 Fermi weights with tetrahedron method with Bloechl corrections


--------------------------------------------------------------------------------------------------------


  energy-cutoff  :      500.00
  volume of cell :       61.04
      direct lattice vectors                 reciprocal lattice vectors
     4.964631010  0.000000000  0.000000000     0.201424839  0.000000000  0.000000000
     0.000000000  3.506512436  0.000000000     0.000000000  0.285183646  0.000000000
     0.000000000  0.000000000  3.506512436     0.000000000  0.000000000  0.285183646

  length of vectors
     4.964631010  3.506512436  3.506512436     0.201424839  0.285183646  0.285183646



 k-points in units of 2pi/SCALE and weight: read from INCAR
   0.00000000  0.00000000  0.00000000       0.021
   0.06714161  0.00000000  0.00000000       0.042
   0.00000000  0.07129591  0.00000000       0.083
   0.06714161  0.07129591  0.00000000       0.167
   0.00000000  0.14259182  0.00000000       0.042
   0.06714161  0.14259182  0.00000000       0.083
   0.00000000  0.07129591  0.07129591       0.083
   0.06714161  0.07129591  0.07129591       0.167
   0.00000000  0.14259182  0.07129591       0.083
   0.06714161  0.14259182  0.07129591       0.167
   0.00000000  0.14259182  0.14259182       0.021
   0.06714161  0.14259182  0.14259182       0.042

 k-points in reciprocal lattice and weights: read from INCAR
   0.00000000  0.00000000  0.00000000       0.021
   0.33333333  0.00000000  0.00000000       0.042
   0.00000000  0.25000000  0.00000000       0.083
   0.33333333  0.25000000  0.00000000       0.167
   0.00000000  0.50000000  0.00000000       0.042
   0.33333333  0.50000000  0.00000000       0.083
   0.00000000  0.25000000  0.25000000       0.083
   0.33333333  0.25000000  0.25000000       0.167
   0.00000000  0.50000000  0.25000000       0.083
   0.33333333  0.50000000  0.25000000       0.167
   0.00000000  0.50000000  0.50000000       0.021
   0.33333333  0.50000000  0.50000000       0.042

 position of ions in fractional coordinates (direct lattice)
   0.00000000  0.00000000  0.00000000
   0.50000000  0.50000000  0.50000000
   0.25000000  0.50000000  0.00000000
   0.75000000  0.00000000  0.50000000

 position of ions in cartesian coordinates  (Angst):
   0.00000000  0.00000000  0.00000000
   2.48231551  1.75325622  1.75325622
   1.24115775  1.75325622  0.00000000
   3.72347326  0.00000000  1.75325622



--------------------------------------------------------------------------------------------------------


 k-point  1 :   0.0000 0.0000 0.0000  plane waves:    1523
 k-point  2 :   0.3333 0.0000 0.0000  plane waves:    1554
 k-point  3 :   0.0000 0.2500 0.0000  plane waves:    1537
 k-point  4 :   0.3333 0.2500 0.0000  plane waves:    1549
 k-point  5 :   0.0000 0.5000 0.0000  plane waves:    1568
 k-point  6 :   0.3333 0.5000 0.0000  plane waves:    1554
 k-point  7 :   0.0000 0.2500 0.2500  plane waves:    1541
 k-point  8 :   0.3333 0.2500 0.2500  plane waves:    1557
 k-point  9 :   0.0000 0.5000 0.2500  plane waves:    1544
 k-point 10 :   0.3333 0.5000 0.2500  plane waves:    1556
 k-point 11 :   0.0000 0.5000 0.5000  plane waves:    1548
 k-point 12 :   0.3333 0.5000 0.5000  plane waves:    1536

 maximum and minimum number of plane-waves per node :       411      359

 maximum number of plane-waves:      1568
 maximum index in each direction:
   IXMAX=    9   IYMAX=    6   IZMAX=    6
   IXMIN=   -9   IYMIN=   -6   IZMIN=   -6

 WARNING: aliasing errors must be expected set NGX to  38 to avoid them
 WARNING: aliasing errors must be expected set NGY to  26 to avoid them
 WARNING: aliasing errors must be expected set NGZ to  26 to avoid them
 aliasing errors are usually negligible using standard VASP settings
 and one can safely disregard these warnings

 real space projection operators:
  total allocation   :        650.59 KBytes
  max/ min on nodes  :        164.81        160.48


 parallel 3D FFT for wavefunctions:
    minimum data exchange during FFTs selected (reduces bandwidth)
 parallel 3D FFT for charge:
    minimum data exchange during FFTs selected (reduces bandwidth)


 total amount of memory used by VASP on root node    31628. kBytes
========================================================================

   base      :      30000. kBytes
   nonlr-proj:        336. kBytes
   fftplans  :        159. kBytes
   grid      :        210. kBytes
   one-center:         15. kBytes
   wavefun   :        908. kBytes

     INWAV:  cpu time    0.0000: real time    0.0000
 Broyden mixing: mesh for mixing (old mesh)
   NGX = 19   NGY = 13   NGZ = 13
  (NGX  = 28   NGY  = 20   NGZ  = 20)
  gives a total of   3211 points

 initial charge density was supplied:
 charge density of overlapping atoms calculated
 number of electron      36.0000000 magnetization
 keeping initial charge density in first step


--------------------------------------------------------------------------------------------------------


 Maximum index for non-local projection operator          492
 Maximum index for augmentation-charges          142 (set IRDMAX)


--------------------------------------------------------------------------------------------------------


 First call to EWALD:  gamma=   0.450
 Maximum number of real-space cells 2x 3x 3
 Maximum number of reciprocal cells 3x 2x 2

 FEWALD executed in parallel
    FEWALD:  cpu time    0.0017: real time    0.0019


----------------------------------------- Iteration    1(   1)  ---------------------------------------


    POTLOK:  cpu time    0.0033: real time    0.0039
    SETDIJ:  cpu time    0.0023: real time    0.0029
     EDDAV:  cpu time    0.2329: real time    0.2594
 BZINTS: Fermi energy: 15.114850; 36.000000 electrons
         Band energy:  74.456000;  BLOECHL correction: -0.217300
       DOS:  cpu time    0.0032: real time    0.0033
    --------------------------------------------
      LOOP:  cpu time    0.2511: real time    0.2790

 eigenvalue-minimisations  :   528
 total energy-change (2. order) : 0.2728503E+03  (-0.1822826E+04)
 number of electron      36.0000000 magnetization
 augmentation part       36.0000000 magnetization

 Free energy of the ion-electron system (eV)
  ---------------------------------------------------
  alpha Z        PSCENC =       182.88822945
  Ewald energy   TEWEN  =     -2730.71446512
  -Hartree energ DENC   =     -1423.03753360
  -exchange      EXHF   =         0.00000000
  -V(xc)+E(xc)   XCENC  =       169.98376362
  PAW double counting   =      3601.42050632    -3959.52880734
  entropy T*S    EENTRO =         0.00000000
  eigenvalues    EBANDS =        74.45599990
  atomic energy  EATOM  =      4357.38260945
  Solvation  Ediel_sol  =         0.00000000
  ---------------------------------------------------
  free energy    TOTEN  =       272.85030268 eV

  energy without entropy =      272.85030268  energy(sigma->0) =      272.85030268


--------------------------------------------------------------------------------------------------------




----------------------------------------- Iteration    1(   2)  ---------------------------------------


     EDDAV:  cpu time    0.2501: real time    0.2866
 BZINTS: Fermi energy: -0.660983; 36.000000 electrons
         Band energy:-187.184197;  BLOECHL correction:  0.000000
       DOS:  cpu time    0.0007: real time    0.0007
    --------------------------------------------
      LOOP:  cpu time    0.2517: real time    0.2896

 eigenvalue-minimisations  :   576
 total energy-change (2. order) :-0.2616402E+03  (-0.2521842E+03)
 number of electron      36.0000000 magnetization
 augmentation part       36.0000000 magnetization

 Free energy of the ion-electron system (eV)
  ---------------------------------------------------
  alpha Z        PSCENC =       182.88822945
  Ewald energy   TEWEN  =     -2730.71446512
  -Hartree energ DENC   =     -1423.03753360
  -exchange      EXHF   =         0.00000000
  -V(xc)+E(xc)   XCENC  =       169.98376362
  PAW double counting   =      3601.42050632    -3959.52880734
  entropy T*S    EENTRO =         0.00000000
  eigenvalues    EBANDS =      -187.18419699
  atomic energy  EATOM  =      4357.38260945
  Solvation  Ediel_sol  =         0.00000000
  ---------------------------------------------------
  free energy    TOTEN  =        11.21010579 eV

  energy without entropy =       11.21010579  energy(sigma->0) =       11.21010579


--------------------------------------------------------------------------------------------------------




----------------------------------------- Iteration    1(   3)  ---------------------------------------


     EDDAV:  cpu time    0.2521: real time    0.2752
 BZINTS: Fermi energy: -2.310297; 36.000000 electrons
         Band energy:-218.984597;  BLOECHL correction:  0.000000
       DOS:  cpu time    0.0007: real time    0.0007
    --------------------------------------------
      LOOP:  cpu time    0.2535: real time    0.2767

 eigenvalue-minimisations  :   618
 total energy-change (2. order) :-0.3180040E+02  (-0.3152829E+02)
 number of electron      36.0000000 magnetization
 augmentation part       36.0000000 magnetization

 Free energy of the ion-electron system (eV)
  ---------------------------------------------------
  alpha Z        PSCENC =       182.88822945
  Ewald energy   TEWEN  =     -2730.71446512
  -Hartree energ DENC   =     -1423.03753360
  -exchange      EXHF   =         0.00000000
  -V(xc)+E(xc)   XCENC  =       169.98376362
  PAW double counting   =      3601.42050632    -3959.52880734
  entropy T*S    EENTRO =         0.00000000
  eigenvalues    EBANDS =      -218.98459729
  atomic energy  EATOM  =      4357.38260945
  Solvation  Ediel_sol  =         0.00000000
  ---------------------------------------------------
  free energy    TOTEN  =       -20.59029451 eV

  energy without entropy =      -20.59029451  energy(sigma->0) =      -20.59029451


--------------------------------------------------------------------------------------------------------




----------------------------------------- Iteration    1(   4)  ---------------------------------------


     EDDAV:  cpu time    0.2730: real time    0.3220
 BZINTS: Fermi energy: -2.281629; 36.000000 electrons
         Band energy:-219.668741;  BLOECHL correction:  0.000000
       DOS:  cpu time    0.0008: real time    0.0008
    --------------------------------------------
      LOOP:  cpu time    0.2747: real time    0.3252

 eigenvalue-minimisations  :   594
 total energy-change (2. order) :-0.6841436E+00  (-0.6833081E+00)
 number of electron      36.0000000 magnetization
 augmentation part       36.0000000 magnetization

 Free energy of the ion-electron system (eV)
  ---------------------------------------------------
  alpha Z        PSCENC =       182.88822945
  Ewald energy   TEWEN  =     -2730.71446512
  -Hartree energ DENC   =     -1423.03753360
  -exchange      EXHF   =         0.00000000
  -V(xc)+E(xc)   XCENC  =       169.98376362
  PAW double counting   =      3601.42050632    -3959.52880734
  entropy T*S    EENTRO =         0.00000000
  eigenvalues    EBANDS =      -219.66874084
  atomic energy  EATOM  =      4357.38260945
  Solvation  Ediel_sol  =         0.00000000
  ---------------------------------------------------
  free energy    TOTEN  =       -21.27443806 eV

  energy without entropy =      -21.27443806  energy(sigma->0) =      -21.27443806


--------------------------------------------------------------------------------------------------------




----------------------------------------- Iteration    1(   5)  ---------------------------------------


     EDDAV:  cpu time    0.2523: real time    0.2795
 BZINTS: Fermi energy: -2.278011; 36.000000 electrons
         Band energy:-219.674431;  BLOECHL correction:  0.000000
       DOS:  cpu time    0.0007: real time    0.0010
    CHARGE:  cpu time    0.0126: real time    0.0140
    MIXING:  cpu time    0.0018: real time    0.0019
    --------------------------------------------
      LOOP:  cpu time    0.2680: real time    0.2984

 eigenvalue-minimisations  :   600
 total energy-change (2. order) :-0.5689685E-02  (-0.5689415E-02)
 number of electron      36.0004968 magnetization
 augmentation part       17.7717531 magnetization

 Broyden mixing:
  rms(total) = 0.10927E+01    rms(broyden)= 0.10924E+01
  rms(prec ) = 0.22600E+01
  weight for this iteration     100.00

 Free energy of the ion-electron system (eV)
  ---------------------------------------------------
  alpha Z        PSCENC =       182.88822945
  Ewald energy   TEWEN  =     -2730.71446512
  -Hartree energ DENC   =     -1423.03753360
  -exchange      EXHF   =         0.00000000
  -V(xc)+E(xc)   XCENC  =       169.98376362
  PAW double counting   =      3601.42050632    -3959.52880734
  entropy T*S    EENTRO =         0.00000000
  eigenvalues    EBANDS =      -219.67443053
  atomic energy  EATOM  =      4357.38260945
  Solvation  Ediel_sol  =         0.00000000
  ---------------------------------------------------
  free energy    TOTEN  =       -21.28012775 eV

  energy without entropy =      -21.28012775  energy(sigma->0) =      -21.28012775


--------------------------------------------------------------------------------------------------------




----------------------------------------- Iteration    1(   6)  ---------------------------------------


    POTLOK:  cpu time    0.0022: real time    0.0032
    SETDIJ:  cpu time    0.0017: real time    0.0028
     EDDAV:  cpu time    0.4150: real time    0.4667
 BZINTS: Fermi energy: -0.457808; 36.000000 electrons
         Band energy:-203.410515;  BLOECHL correction: -0.000000
       DOS:  cpu time    0.0012: real time    0.0012
    CHARGE:  cpu time    0.0126: real time    0.0135
    MIXING:  cpu time    0.0003: real time    0.0003
    --------------------------------------------
      LOOP:  cpu time    0.4336: real time    0.4885

 eigenvalue-minimisations  :  1010
 total energy-change (2. order) : 0.2982565E+01  (-0.1257752E+01)
 number of electron      36.0004652 magnetization
 augmentation part       17.4403967 magnetization

 Broyden mixing:
  rms(total) = 0.65206E+00    rms(broyden)= 0.65185E+00
  rms(prec ) = 0.80477E+00
  weight for this iteration     100.00

 eigenvalues of (default mixing * dielectric matrix)
  average eigenvalue GAMMA=   0.7422
  0.7422

 Free energy of the ion-electron system (eV)
  ---------------------------------------------------
  alpha Z        PSCENC =       182.88822945
  Ewald energy   TEWEN  =     -2730.71446512
  -Hartree energ DENC   =     -1443.96692034
  -exchange      EXHF   =         0.00000000
  -V(xc)+E(xc)   XCENC  =       172.00580547
  PAW double counting   =      3696.33075622    -4048.81306250
  entropy T*S    EENTRO =         0.00000000
  eigenvalues    EBANDS =      -203.41051525
  atomic energy  EATOM  =      4357.38260945
  Solvation  Ediel_sol  =         0.00000000
  ---------------------------------------------------
  free energy    TOTEN  =       -18.29756262 eV

  energy without entropy =      -18.29756262  energy(sigma->0) =      -18.29756262


--------------------------------------------------------------------------------------------------------




----------------------------------------- Iteration    1(   7)  ---------------------------------------


    POTLOK:  cpu time    0.0019: real time    0.0020
    SETDIJ:  cpu time    0.0018: real time    0.0028
     EDDAV:  cpu time    0.2585: real time    0.2844
 BZINTS: Fermi energy: -0.730082; 36.000000 electrons
         Band energy:-202.716255;  BLOECHL correction:  0.000000
       DOS:  cpu time    0.0008: real time    0.0008
    CHARGE:  cpu time    0.0116: real time    0.0125
    MIXING:  cpu time    0.0004: real time    0.0006
    --------------------------------------------
      LOOP:  cpu time    0.2757: real time    0.3052

 eigenvalue-minimisations  :   632
 total energy-change (2. order) :-0.3385230E-01  (-0.2438958E+00)
 number of electron      36.0004654 magnetization
 augmentation part       17.4265469 magnetization

 Broyden mixing:
  rms(total) = 0.39034E+00    rms(broyden)= 0.39033E+00
  rms(prec ) = 0.49929E+00
  weight for this iteration     100.00

 eigenvalues of (default mixing * dielectric matrix)
  average eigenvalue GAMMA=   1.4420
  1.0100  1.8741

 Free energy of the ion-electron system (eV)
  ---------------------------------------------------
  alpha Z        PSCENC =       182.88822945
  Ewald energy   TEWEN  =     -2730.71446512
  -Hartree energ DENC   =     -1441.30493526
  -exchange      EXHF   =         0.00000000
  -V(xc)+E(xc)   XCENC  =       171.74054910
  PAW double counting   =      3755.61901935    -4111.22616720
  entropy T*S    EENTRO =         0.00000000
  eigenvalues    EBANDS =      -202.71625471
  atomic energy  EATOM  =      4357.38260945
  Solvation  Ediel_sol  =         0.00000000
  ---------------------------------------------------
  free energy    TOTEN  =       -18.33141492 eV

  energy without entropy =      -18.33141492  energy(sigma->0) =      -18.33141492


--------------------------------------------------------------------------------------------------------




----------------------------------------- Iteration    1(   8)  ---------------------------------------


    POTLOK:  cpu time    0.0017: real time    0.0018
    SETDIJ:  cpu time    0.0022: real time    0.0026
     EDDAV:  cpu time    0.2819: real time    0.3135
 BZINTS: Fermi energy: -1.119730; 36.000000 electrons
         Band energy:-208.410536;  BLOECHL correction:  0.000000
       DOS:  cpu time    0.0007: real time    0.0007
    CHARGE:  cpu time    0.0110: real time    0.0113
    MIXING:  cpu time    0.0004: real time    0.0004
    --------------------------------------------
      LOOP:  cpu time    0.2988: real time    0.3326

 eigenvalue-minimisations  :   680
 total energy-change (2. order) : 0.1605264E-02  (-0.9067780E-01)
 number of electron      36.0004727 magnetization
 augmentation part       17.5151187 magnetization

 Broyden mixing:
  rms(total) = 0.17198E+00    rms(broyden)= 0.17191E+00
  rms(prec ) = 0.34334E+00
  weight for this iteration     100.00

 eigenvalues of (default mixing * dielectric matrix)
  average eigenvalue GAMMA=   1.4011
  2.5257  0.8388  0.8388

 Free energy of the ion-electron system (eV)
  ---------------------------------------------------
  alpha Z        PSCENC =       182.88822945
  Ewald energy   TEWEN  =     -2730.71446512
  -Hartree energ DENC   =     -1434.84481253
  -exchange      EXHF   =         0.00000000
  -V(xc)+E(xc)   XCENC  =       171.32667405
  PAW double counting   =      3820.20799318    -4176.16550187
  entropy T*S    EENTRO =         0.00000000
  eigenvalues    EBANDS =      -208.41053626
  atomic energy  EATOM  =      4357.38260945
  Solvation  Ediel_sol  =         0.00000000
  ---------------------------------------------------
  free energy    TOTEN  =       -18.32980966 eV

  energy without entropy =      -18.32980966  energy(sigma->0) =      -18.32980966


--------------------------------------------------------------------------------------------------------




----------------------------------------- Iteration    1(   9)  ---------------------------------------


    POTLOK:  cpu time    0.0020: real time    0.0022
    SETDIJ:  cpu time    0.0020: real time    0.0025
     EDDAV:  cpu time    0.2980: real time    0.3249
 BZINTS: Fermi energy: -0.848717; 36.000000 electrons
         Band energy:-204.774375;  BLOECHL correction:  0.000000
       DOS:  cpu time    0.0007: real time    0.0012
    CHARGE:  cpu time    0.0107: real time    0.0111
    MIXING:  cpu time    0.0003: real time    0.0003
    --------------------------------------------
      LOOP:  cpu time    0.3143: real time    0.3440

 eigenvalue-minimisations  :   748
 total energy-change (2. order) : 0.6166588E-01  (-0.1803578E-01)
 number of electron      36.0004687 magnetization
 augmentation part       17.4677227 magnetization

 Broyden mixing:
  rms(total) = 0.34634E-01    rms(broyden)= 0.34592E-01
  rms(prec ) = 0.53472E-01
  weight for this iteration     100.00

 eigenvalues of (default mixing * dielectric matrix)
  average eigenvalue GAMMA=   1.4395
  2.3706  1.6089  0.8892  0.8892

 Free energy of the ion-electron system (eV)
  ---------------------------------------------------
  alpha Z        PSCENC =       182.88822945
  Ewald energy   TEWEN  =     -2730.71446512
  -Hartree energ DENC   =     -1438.50091415
  -exchange      EXHF   =         0.00000000
  -V(xc)+E(xc)   XCENC  =       171.61858778
  PAW double counting   =      3834.14682847    -4190.31464487
  entropy T*S    EENTRO =         0.00000000
  eigenvalues    EBANDS =      -204.77437479
  atomic energy  EATOM  =      4357.38260945
  Solvation  Ediel_sol  =         0.00000000
  ---------------------------------------------------
  free energy    TOTEN  =       -18.26814378 eV

  energy without entropy =      -18.26814378  energy(sigma->0) =      -18.26814378


--------------------------------------------------------------------------------------------------------




----------------------------------------- Iteration    1(  10)  ---------------------------------------


    POTLOK:  cpu time    0.0017: real time    0.0018
    SETDIJ:  cpu time    0.0020: real time    0.0025
     EDDAV:  cpu time    0.2346: real time    0.2672
 BZINTS: Fermi energy: -0.747668; 36.000000 electrons
         Band energy:-203.545067;  BLOECHL correction:  0.000000
       DOS:  cpu time    0.0008: real time    0.0008
    CHARGE:  cpu time    0.0118: real time    0.0124
    MIXING:  cpu time    0.0004: real time    0.0004
    --------------------------------------------
      LOOP:  cpu time    0.2521: real time    0.2871

 eigenvalue-minimisations  :   528
 total energy-change (2. order) :-0.2397205E-02  (-0.4054386E-02)
 number of electron      36.0004677 magnetization
 augmentation part       17.4503042 magnetization

 Broyden mixing:
  rms(total) = 0.97151E-02    rms(broyden)= 0.96741E-02
  rms(prec ) = 0.16301E-01
  weight for this iteration     100.00

 eigenvalues of (default mixing * dielectric matrix)
  average eigenvalue GAMMA=   1.4261
  2.2689  1.8426  1.2382  0.8905  0.8905

 Free energy of the ion-electron system (eV)
  ---------------------------------------------------
  alpha Z        PSCENC =       182.88822945
  Ewald energy   TEWEN  =     -2730.71446512
  -Hartree energ DENC   =     -1439.42966146
  -exchange      EXHF   =         0.00000000
  -V(xc)+E(xc)   XCENC  =       171.66984160
  PAW double counting   =      3829.33575615    -4185.85778416
  entropy T*S    EENTRO =         0.00000000
  eigenvalues    EBANDS =      -203.54506689
  atomic energy  EATOM  =      4357.38260945
  Solvation  Ediel_sol  =         0.00000000
  ---------------------------------------------------
  free energy    TOTEN  =       -18.27054099 eV

  energy without entropy =      -18.27054099  energy(sigma->0) =      -18.27054099


--------------------------------------------------------------------------------------------------------




----------------------------------------- Iteration    1(  11)  ---------------------------------------


    POTLOK:  cpu time    0.0021: real time    0.0031
    SETDIJ:  cpu time    0.0021: real time    0.0024
     EDDAV:  cpu time    0.2791: real time    0.3058
 BZINTS: Fermi energy: -0.745604; 36.000000 electrons
         Band energy:-204.064229;  BLOECHL correction:  0.000000
       DOS:  cpu time    0.0008: real time    0.0008
    CHARGE:  cpu time    0.0109: real time    0.0118
    MIXING:  cpu time    0.0003: real time    0.0003
    --------------------------------------------
      LOOP:  cpu time    0.2961: real time    0.3264

 eigenvalue-minimisations  :   678
 total energy-change (2. order) :-0.1257302E-03  (-0.1156075E-03)
 number of electron      36.0004678 magnetization
 augmentation part       17.4539330 magnetization

 Broyden mixing:
  rms(total) = 0.96429E-02    rms(broyden)= 0.96409E-02
  rms(prec ) = 0.15737E-01
  weight for this iteration     100.00

 eigenvalues of (default mixing * dielectric matrix)
  average eigenvalue GAMMA=   1.4518
  2.6771  2.3259  0.9191  0.9191  0.9347  0.9347

 Free energy of the ion-electron system (eV)
  ---------------------------------------------------
  alpha Z        PSCENC =       182.88822945
  Ewald energy   TEWEN  =     -2730.71446512
  -Hartree energ DENC   =     -1439.08277872
  -exchange      EXHF   =         0.00000000
  -V(xc)+E(xc)   XCENC  =       171.65225004
  PAW double counting   =      3827.40227480    -4183.73455754
  entropy T*S    EENTRO =         0.00000000
  eigenvalues    EBANDS =      -204.06422908
  atomic energy  EATOM  =      4357.38260945
  Solvation  Ediel_sol  =         0.00000000
  ---------------------------------------------------
  free energy    TOTEN  =       -18.27066672 eV

  energy without entropy =      -18.27066672  energy(sigma->0) =      -18.27066672


--------------------------------------------------------------------------------------------------------




----------------------------------------- Iteration    1(  12)  ---------------------------------------


    POTLOK:  cpu time    0.0015: real time    0.0016
    SETDIJ:  cpu time    0.0022: real time    0.0025
     EDDAV:  cpu time    0.3109: real time    0.3358
 BZINTS: Fermi energy: -0.835778; 36.000000 electrons
         Band energy:-204.028160;  BLOECHL correction:  0.000000
       DOS:  cpu time    0.0007: real time    0.0008
    CHARGE:  cpu time    0.0106: real time    0.0109
    MIXING:  cpu time    0.0006: real time    0.0007
    --------------------------------------------
      LOOP:  cpu time    0.3273: real time    0.3544

 eigenvalue-minimisations  :   784
 total energy-change (2. order) : 0.7195331E-04  (-0.5060367E-04)
 number of electron      36.0004680 magnetization
 augmentation part       17.4549345 magnetization

 Broyden mixing:
  rms(total) = 0.11739E-02    rms(broyden)= 0.11705E-02
  rms(prec ) = 0.17614E-02
  weight for this iteration     100.00

 eigenvalues of (default mixing * dielectric matrix)
  average eigenvalue GAMMA=   1.4313
  2.4848  2.4848  1.1583  1.1583  0.9027  0.9027  0.9274

 Free energy of the ion-electron system (eV)
  ---------------------------------------------------
  alpha Z        PSCENC =       182.88822945
  Ewald energy   TEWEN  =     -2730.71446512
  -Hartree energ DENC   =     -1439.01674240
  -exchange      EXHF   =         0.00000000
  -V(xc)+E(xc)   XCENC  =       171.64414829
  PAW double counting   =      3826.81801434    -4183.24422905
  entropy T*S    EENTRO =         0.00000000
  eigenvalues    EBANDS =      -204.02815971
  atomic energy  EATOM  =      4357.38260945
  Solvation  Ediel_sol  =         0.00000000
  ---------------------------------------------------
  free energy    TOTEN  =       -18.27059476 eV

  energy without entropy =      -18.27059476  energy(sigma->0) =      -18.27059476


--------------------------------------------------------------------------------------------------------




----------------------------------------- Iteration    1(  13)  ---------------------------------------


    POTLOK:  cpu time    0.0019: real time    0.0022
    SETDIJ:  cpu time    0.0021: real time    0.0026
     EDDAV:  cpu time    0.2766: real time    0.3035
 BZINTS: Fermi energy: -0.747214; 36.000000 electrons
         Band energy:-203.964516;  BLOECHL correction:  0.000000
       DOS:  cpu time    0.0008: real time    0.0008
    CHARGE:  cpu time    0.0106: real time    0.0113
    MIXING:  cpu time    0.0004: real time    0.0004
    --------------------------------------------
      LOOP:  cpu time    0.2931: real time    0.3227

 eigenvalue-minimisations  :   674
 total energy-change (2. order) :-0.9580828E-05  (-0.6349073E-05)
 number of electron      36.0004679 magnetization
 augmentation part       17.4544773 magnetization

 Broyden mixing:
  rms(total) = 0.15490E-02    rms(broyden)= 0.15489E-02
  rms(prec ) = 0.26698E-02
  weight for this iteration     100.00

 eigenvalues of (default mixing * dielectric matrix)
  average eigenvalue GAMMA=   1.4999
  2.8693  2.3900  2.1321  0.9122  0.9122  0.9502  0.9502  0.8830

 Free energy of the ion-electron system (eV)
  ---------------------------------------------------
  alpha Z        PSCENC =       182.88822945
  Ewald energy   TEWEN  =     -2730.71446512
  -Hartree energ DENC   =     -1439.07962762
  -exchange      EXHF   =         0.00000000
  -V(xc)+E(xc)   XCENC  =       171.64816590
  PAW double counting   =      3826.73207268    -4183.16307330
  entropy T*S    EENTRO =         0.00000000
  eigenvalues    EBANDS =      -203.96451579
  atomic energy  EATOM  =      4357.38260945
  Solvation  Ediel_sol  =         0.00000000
  ---------------------------------------------------
  free energy    TOTEN  =       -18.27060434 eV

  energy without entropy =      -18.27060434  energy(sigma->0) =      -18.27060434


--------------------------------------------------------------------------------------------------------




----------------------------------------- Iteration    1(  14)  ---------------------------------------


    POTLOK:  cpu time    0.0017: real time    0.0018
    SETDIJ:  cpu time    0.0017: real time    0.0023
     EDDAV:  cpu time    0.2693: real time    0.2989
 BZINTS: Fermi energy: -0.834003; 36.000000 electrons
         Band energy:-203.990411;  BLOECHL correction:  0.000000
       DOS:  cpu time    0.0007: real time    0.0007
    CHARGE:  cpu time    0.0109: real time    0.0116
    MIXING:  cpu time    0.0004: real time    0.0004
    --------------------------------------------
      LOOP:  cpu time    0.2855: real time    0.3177

 eigenvalue-minimisations  :   642
 total energy-change (2. order) : 0.2308334E-05  (-0.9730049E-06)
 number of electron      36.0004679 magnetization
 augmentation part       17.4547619 magnetization

 Broyden mixing:
  rms(total) = 0.49421E-03    rms(broyden)= 0.49401E-03
  rms(prec ) = 0.76618E-03
  weight for this iteration     100.00

 eigenvalues of (default mixing * dielectric matrix)
  average eigenvalue GAMMA=   1.5544
  3.3452  2.5914  2.2689  0.9163  0.9163  1.0802  1.0235  1.0235  0.8245

 Free energy of the ion-electron system (eV)
  ---------------------------------------------------
  alpha Z        PSCENC =       182.88822945
  Ewald energy   TEWEN  =     -2730.71446512
  -Hartree energ DENC   =     -1439.05661030
  -exchange      EXHF   =         0.00000000
  -V(xc)+E(xc)   XCENC  =       171.64623467
  PAW double counting   =      3826.71060315    -4183.13679210
  entropy T*S    EENTRO =         0.00000000
  eigenvalues    EBANDS =      -203.99041124
  atomic energy  EATOM  =      4357.38260945
  Solvation  Ediel_sol  =         0.00000000
  ---------------------------------------------------
  free energy    TOTEN  =       -18.27060204 eV

  energy without entropy =      -18.27060204  energy(sigma->0) =      -18.27060204


--------------------------------------------------------------------------------------------------------




----------------------------------------- Iteration    1(  15)  ---------------------------------------


    POTLOK:  cpu time    0.0016: real time    0.0017
    SETDIJ:  cpu time    0.0020: real time    0.0025
     EDDAV:  cpu time    0.2327: real time    0.2592
 BZINTS: Fermi energy: -0.834330; 36.000000 electrons
         Band energy:-204.016654;  BLOECHL correction:  0.000000
       DOS:  cpu time    0.0007: real time    0.0007
    --------------------------------------------
      LOOP:  cpu time    0.2604: real time    0.2981

 eigenvalue-minimisations  :   532
 total energy-change (2. order) : 0.1994831E-06  (-0.3689846E-06)
 number of electron      36.0004679 magnetization
 augmentation part       17.4547619 magnetization

 Free energy of the ion-electron system (eV)
  ---------------------------------------------------
  alpha Z        PSCENC =       182.88822945
  Ewald energy   TEWEN  =     -2730.71446512
  -Hartree energ DENC   =     -1439.03795480
  -exchange      EXHF   =         0.00000000
  -V(xc)+E(xc)   XCENC  =       171.64499112
  PAW double counting   =      3826.71150708    -4183.12886510
  entropy T*S    EENTRO =         0.00000000
  eigenvalues    EBANDS =      -204.01665392
  atomic energy  EATOM  =      4357.38260945
  Solvation  Ediel_sol  =         0.00000000
  ---------------------------------------------------
  free energy    TOTEN  =       -18.27060184 eV

  energy without entropy =      -18.27060184  energy(sigma->0) =      -18.27060184


--------------------------------------------------------------------------------------------------------




 the core state eigenenergies are
   1-  1s  -9519.4378  2s  -1152.8497  2p   -998.5083  3s   -124.2050  3p    -78.3879

   2-  1s  -9519.4378  2s  -1152.8497  2p   -998.5083  3s   -124.2050  3p    -78.3879

   3-  1s   -505.8358
   4-  1s   -505.8358

 E-fermi :  -0.8343     XC(G=0):  -9.9123     alpha+bet : -6.1626


 k-point     1 :       0.0000    0.0000    0.0000
  band No.  band energies     occupation
      1     -17.2157      2.00000
      2     -16.6894      2.00000
      3      -5.8742      2.00000
      4      -5.7807      2.00000
      5      -5.7778      2.00000
      6      -5.7778      2.00000
      7      -5.2638      2.00000
      8      -5.2638      2.00000
      9      -5.1240      2.00000
     10      -5.1196      2.00000
     11      -5.0880      2.00000
     12      -5.0351      2.00000
     13      -3.7202      2.00000
     14      -2.3452      2.00000
     15      -2.3452      2.00000
     16      -0.8403      2.00000
     17      -0.8349      2.00000
     18      -0.8349      2.00000
     19      -0.6260      0.00000
     20       4.2034      0.00000
     21       6.0519      0.00000
     22       9.7606      0.00000

 k-point     2 :       0.3333    0.0000    0.0000
  band No.  band energies     occupation
      1     -17.0864      2.00000
      2     -16.8226      2.00000
      3      -5.9016      2.00000
      4      -5.8560      2.00000
      5      -5.6803      2.00000
      6      -5.6803      2.00000
      7      -5.4315      2.00000
      8      -5.4315      2.00000
      9      -5.1868      2.00000
     10      -5.1628      2.00000
     11      -5.0985      2.00000
     12      -5.0562      2.00000
     13      -3.2152      2.00000
     14      -2.2217      2.00000
     15      -1.9402      2.00000
     16      -1.9402      2.00000
     17      -1.1936      2.00000
     18      -1.1936      2.00000
     19       1.3000      0.00000
     20       3.3099      0.00000
     21       7.0187      0.00000
     22       9.2643      0.00000

 k-point     3 :       0.0000    0.2500    0.0000
  band No.  band energies     occupation
      1     -17.0738      2.00000
      2     -16.6979      2.00000
      3      -5.7991      2.00000
      4      -5.7245      2.00000
      5      -5.7118      2.00000
      6      -5.6919      2.00000
      7      -5.3705      2.00000
      8      -5.2321      2.00000
      9      -5.1419      2.00000
     10      -5.1101      2.00000
     11      -5.0780      2.00000
     12      -4.8887      2.00000
     13      -3.9595      2.00000
     14      -2.8905      2.00000
     15      -2.4623      2.00000
     16      -2.0131      2.00000
     17      -1.2817      2.00000
     18      -0.9600      2.00000
     19       1.3851      0.00000
     20       5.3908      0.00000
     21       5.8431      0.00000
     22       8.5420      0.00000

 k-point     4 :       0.3333    0.2500    0.0000
  band No.  band energies     occupation
      1     -16.9785      2.00000
      2     -16.7904      2.00000
      3      -5.7342      2.00000
      4      -5.7139      2.00000
      5      -5.6671      2.00000
      6      -5.6616      2.00000
      7      -5.5038      2.00000
      8      -5.4008      2.00000
      9      -5.1279      2.00000
     10      -5.1029      2.00000
     11      -5.0621      2.00000
     12      -5.0597      2.00000
     13      -3.9035      2.00000
     14      -3.2066      2.00000
     15      -2.0402      2.00000
     16      -1.7363      2.00000
     17      -1.2105      2.00000
     18      -1.1572      2.00000
     19       2.1165      0.00000
     20       3.9923      0.00000
     21       6.6833      0.00000
     22       7.8082      0.00000

 k-point     5 :       0.0000    0.5000    0.0000
  band No.  band energies     occupation
      1     -16.8176      2.00000
      2     -16.8176      2.00000
      3      -5.6291      2.00000
      4      -5.6291      2.00000
      5      -5.5587      2.00000
      6      -5.5587      2.00000
      7      -5.4650      2.00000
      8      -5.4650      2.00000
      9      -5.1398      2.00000
     10      -5.1398      2.00000
     11      -5.0410      2.00000
     12      -5.0410      2.00000
     13      -3.7068      2.00000
     14      -3.7068      2.00000
     15      -2.3660      2.00000
     16      -2.3660      2.00000
     17      -1.3870      2.00000
     18      -1.3870      2.00000
     19       3.8893      0.00000
     20       3.8893      0.00000
     21       7.3374      0.00000
     22       7.3374      0.00000

 k-point     6 :       0.3333    0.5000    0.0000
  band No.  band energies     occupation
      1     -16.8126      2.00000
      2     -16.8126      2.00000
      3      -5.6272      2.00000
      4      -5.6272      2.00000
      5      -5.6083      2.00000
      6      -5.6083      2.00000
      7      -5.2908      2.00000
      8      -5.2908      2.00000
      9      -5.0846      2.00000
     10      -5.0846      2.00000
     11      -5.0467      2.00000
     12      -5.0467      2.00000
     13      -4.4269      2.00000
     14      -4.4269      2.00000
     15      -1.5893      2.00000
     16      -1.5893      2.00000
     17      -1.3801      2.00000
     18      -1.3801      2.00000
     19       3.6322      0.00000
     20       3.6322      0.00000
     21       6.3231      0.00000
     22       6.3231      0.00000

 k-point     7 :       0.0000    0.2500    0.2500
  band No.  band energies     occupation
      1     -16.9544      2.00000
      2     -16.6869      2.00000
      3      -5.8945      2.00000
      4      -5.6546      2.00000
      5      -5.5696      2.00000
      6      -5.5673      2.00000
      7      -5.3678      2.00000
      8      -5.2403      2.00000
      9      -5.1872      2.00000
     10      -5.1180      2.00000
     11      -5.0804      2.00000
     12      -4.8546      2.00000
     13      -3.8662      2.00000
     14      -2.7660      2.00000
     15      -2.7566      2.00000
     16      -2.4993      2.00000
     17      -1.5652      2.00000
     18      -1.5614      2.00000
     19       2.3721      0.00000
     20       5.8962      0.00000
     21       6.0633      0.00000
     22       8.0521      0.00000

 k-point     8 :       0.3333    0.2500    0.2500
  band No.  band energies     occupation
      1     -16.8854      2.00000
      2     -16.7513      2.00000
      3      -5.7130      2.00000
      4      -5.6316      2.00000
      5      -5.6110      2.00000
      6      -5.5508      2.00000
      7      -5.5175      2.00000
      8      -5.2494      2.00000
      9      -5.1517      2.00000
     10      -5.1233      2.00000
     11      -5.0639      2.00000
     12      -4.9998      2.00000
     13      -3.9378      2.00000
     14      -3.3483      2.00000
     15      -2.6663      2.00000
     16      -1.9920      2.00000
     17      -1.7000      2.00000
     18      -1.3204      2.00000
     19       3.1083      0.00000
     20       4.7711      0.00000
     21       6.7318      0.00000
     22       7.7279      0.00000

 k-point     9 :       0.0000    0.5000    0.2500
  band No.  band energies     occupation
      1     -16.7537      2.00000
      2     -16.7537      2.00000
      3      -5.7753      2.00000
      4      -5.7753      2.00000
      5      -5.4519      2.00000
      6      -5.4519      2.00000
      7      -5.3319      2.00000
      8      -5.3319      2.00000
      9      -5.0950      2.00000
     10      -5.0950      2.00000
     11      -5.0419      2.00000
     12      -5.0419      2.00000
     13      -3.6131      2.00000
     14      -3.6131      2.00000
     15      -2.3577      2.00000
     16      -2.3577      2.00000
     17      -2.0347      2.00000
     18      -2.0347      2.00000
     19       4.2140      0.00000
     20       4.2140      0.00000
     21       6.6541      0.00000
     22       6.6541      0.00000

 k-point    10 :       0.3333    0.5000    0.2500
  band No.  band energies     occupation
      1     -16.7506      2.00000
      2     -16.7506      2.00000
      3      -5.6774      2.00000
      4      -5.6774      2.00000
      5      -5.4873      2.00000
      6      -5.4873      2.00000
      7      -5.2881      2.00000
      8      -5.2881      2.00000
      9      -5.0735      2.00000
     10      -5.0735      2.00000
     11      -4.9611      2.00000
     12      -4.9611      2.00000
     13      -4.1528      2.00000
     14      -4.1528      2.00000
     15      -2.3145      2.00000
     16      -2.3145      2.00000
     17      -1.7904      2.00000
     18      -1.7904      2.00000
     19       4.6142      0.00000
     20       4.6142      0.00000
     21       6.3088      0.00000
     22       6.3088      0.00000

 k-point    11 :       0.0000    0.5000    0.5000
  band No.  band energies     occupation
      1     -16.6886      2.00000
      2     -16.6886      2.00000
      3      -5.8711      2.00000
      4      -5.8711      2.00000
      5      -5.2655      2.00000
      6      -5.2655      2.00000
      7      -5.2648      2.00000
      8      -5.2648      2.00000
      9      -5.0851      2.00000
     10      -5.0851      2.00000
     11      -5.0379      2.00000
     12      -5.0379      2.00000
     13      -3.7113      2.00000
     14      -3.7113      2.00000
     15      -2.3503      2.00000
     16      -2.3503      2.00000
     17      -2.3495      2.00000
     18      -2.3495      2.00000
     19       4.2015      0.00000
     20       4.2015      0.00000
     21       6.0514      0.00000
     22       6.0514      0.00000

 k-point    12 :       0.3333    0.5000    0.5000
  band No.  band energies     occupation
      1     -16.6870      2.00000
      2     -16.6870      2.00000
      3      -5.7152      2.00000
      4      -5.7152      2.00000
      5      -5.3517      2.00000
      6      -5.3517      2.00000
      7      -5.2542      2.00000
      8      -5.2542      2.00000
      9      -5.0873      2.00000
     10      -5.0873      2.00000
     11      -4.9060      2.00000
     12      -4.9060      2.00000
     13      -3.8200      2.00000
     14      -3.8200      2.00000
     15      -2.6646      2.00000
     16      -2.6646      2.00000
     17      -2.4640      2.00000
     18      -2.4640      2.00000
     19       5.3273      0.00000
     20       5.3273      0.00000
     21       6.0620      0.00000
     22       6.0620      0.00000


--------------------------------------------------------------------------------------------------------


 soft charge-density along one line, spin component           1
         0         1         2         3         4         5         6         7         8         9
 total charge-density along one line

 pseudopotential strength for first ion, spin component:           1
-10.946   0.000   0.000   0.000  -0.000 -11.252   0.000   0.000
  0.000 -10.954  -0.000  -0.000  -0.000   0.000 -11.260  -0.000
  0.000  -0.000 -10.950   0.000   0.004   0.000  -0.000 -11.256
  0.000  -0.000   0.000 -10.946   0.000   0.000  -0.000   0.000
 -0.000  -0.000   0.004   0.000 -10.955  -0.000  -0.000   0.004
-11.252   0.000   0.000   0.000  -0.000 -11.486   0.000   0.000
  0.000 -11.260  -0.000  -0.000  -0.000   0.000 -11.493  -0.000
  0.000  -0.000 -11.256   0.000   0.004   0.000  -0.000 -11.490
  0.000  -0.000   0.000 -11.252   0.000   0.000  -0.000   0.000
 -0.000  -0.000   0.004   0.000 -11.261  -0.000  -0.000   0.004
 -0.000   0.000   0.000   0.000  -0.000  -0.000   0.000   0.000
 -0.000   0.000   0.000   0.000  -0.000  -0.000   0.000   0.000
 -0.001   0.000  -0.000   0.000  -0.000  -0.001   0.000  -0.000
  0.000   0.000   0.000   0.001   0.000   0.000   0.000   0.000
  0.000   0.000   0.001   0.000   0.001   0.000   0.000   0.001
 -0.000   0.000  -0.000   0.000  -0.000   0.000   0.000  -0.000
  0.000   0.000   0.000   0.000   0.000   0.000   0.000   0.000
  0.000   0.000   0.000   0.000   0.000   0.000   0.000  -0.000
 total augmentation occupancy for first ion, spin component:           1
  3.899   0.000   0.000   0.000  -0.000  -1.837   0.000   0.000   0.000   0.000  -0.000   0.000  -0.523   0.000   0.000   0.090
  0.000   2.595  -0.000   0.000   0.000   0.000  -0.577   0.000   0.000   0.000   0.000   0.000   0.000   0.000   0.000   0.000
  0.000   0.000   3.561  -0.000   0.559   0.000   0.000  -1.511   0.000  -0.541   0.000  -0.000   0.000   0.000   0.450   0.000
  0.000  -0.000   0.000   3.899   0.000   0.000   0.000   0.000  -1.837   0.000   0.000   0.000   0.000   0.523   0.000   0.000
 -0.000   0.000   0.559  -0.000   2.915   0.000   0.000  -0.541   0.000  -0.886  -0.000   0.000   0.000   0.000   0.260   0.000
 -1.837   0.000  -0.000   0.000  -0.000   1.775  -0.000  -0.000   0.000   0.000   0.000  -0.000   0.492   0.000   0.000  -0.101
  0.000  -0.577   0.000  -0.000   0.000  -0.000   0.561   0.000  -0.000  -0.000   0.000   0.000  -0.000   0.000   0.000   0.000
  0.000   0.000  -1.511  -0.000  -0.541  -0.000   0.000   1.462   0.000   0.522  -0.000   0.000  -0.000  -0.000  -0.424  -0.000
  0.000   0.000   0.000  -1.837   0.000   0.000  -0.000   0.000   1.775   0.000   0.000   0.000   0.000  -0.492  -0.000   0.000
  0.000   0.000  -0.541   0.000  -0.886   0.000  -0.000   0.522  -0.000   0.860   0.000  -0.000   0.000  -0.000  -0.245   0.000
 -0.000   0.000   0.000   0.000  -0.000   0.000   0.000  -0.000   0.000   0.000   2.044  -0.495   0.000  -0.000   0.000  -0.000
 -0.000   0.000  -0.000   0.000   0.000   0.000   0.000   0.000   0.000  -0.000  -0.495   0.143   0.000   0.000   0.000   0.000
 -0.523   0.000   0.000   0.000  -0.000   0.492   0.000   0.000   0.000   0.000   0.000   0.000   0.263   0.000  -0.000  -0.053
  0.000   0.000  -0.000   0.523  -0.000   0.000   0.000  -0.000  -0.492   0.000  -0.000   0.000   0.000   0.263   0.000   0.000
  0.000   0.000   0.450  -0.000   0.260   0.000   0.000  -0.424  -0.000  -0.245   0.000   0.000   0.000  -0.000   0.262   0.000
  0.090   0.000   0.000   0.000   0.000  -0.101  -0.000  -0.000   0.000  -0.000  -0.000   0.000  -0.053   0.000  -0.000   0.013
  0.000  -0.000   0.000  -0.090  -0.000   0.000   0.000   0.000   0.101   0.000   0.000   0.000   0.000  -0.053   0.000   0.000
  0.000   0.000  -0.078   0.000  -0.045   0.000   0.000   0.087   0.000   0.050   0.000  -0.000  -0.000   0.000  -0.053  -0.000


------------------------ aborting loop because EDIFF is reached ----------------------------------------





 total charge

# of ion     s       p       d       tot
----------------------------------------
  1        0.412   0.318   9.838  10.568
  2        0.412   0.318   9.838  10.568
  3        1.553   3.313   0.000   4.866
  4        1.553   3.313   0.000   4.866
------------------------------------------------
tot        3.929   7.263  19.676  30.868

    CHARGE:  cpu time    0.0126: real time    0.0141
    FORLOC:  cpu time    0.0002: real time    0.0006
    FORNL :  cpu time    0.0526: real time    0.0591
    STRESS:  cpu time    0.1545: real time    0.1726
    FORCOR:  cpu time    0.0022: real time    0.0028
    FORHAR:  cpu time    0.0005: real time    0.0006
    MIXING:  cpu time    0.0004: real time    0.0004
    OFIELD:  cpu time    0.0000: real time    0.0000

  FORCE on cell =-STRESS in cart. coord.  units (eV):
  Direction    XX          YY          ZZ          XY          YZ          ZX
  --------------------------------------------------------------------------------------
  Alpha Z   182.88823   182.88823   182.88823
  Ewald    -909.46885  -910.62384  -910.62384    -0.00000     0.00000     0.00000
  Hartree   480.15850   479.45036   479.45034    -0.00000    -0.00000    -0.00000
  E(xc)    -200.08573  -200.07701  -200.07701    -0.00000     0.00000    -0.00000
  Local      71.22937    72.93475    72.93475    -0.00000    -0.00000     0.00000
  n-local  -117.96438  -115.97503  -120.07497     0.20331     0.32336    -0.02245
  augment    88.97554    88.96475    88.96475     0.00000    -0.00000     0.00000
  Kinetic   396.43525   389.91906   403.51584    -0.97009    -1.34436     0.35063
  Fock        0.00000     0.00000     0.00000     0.00000     0.00000     0.00000
  -------------------------------------------------------------------------------------
  Total      -7.83207    -7.77033    -7.77033     0.00000     0.00000    -0.00000
  in kB    -205.56505  -203.94454  -203.94454     0.00000     0.00000    -0.00000
  external pressure =     -204.48 kB  Pullay stress =        0.00 kB


 VOLUME and BASIS-vectors are now :
 -----------------------------------------------------------------------------
  energy-cutoff  :      500.00
  volume of cell :       61.04
      direct lattice vectors                 reciprocal lattice vectors
     4.964631010  0.000000000  0.000000000     0.201424839  0.000000000  0.000000000
     0.000000000  3.506512436  0.000000000     0.000000000  0.285183646  0.000000000
     0.000000000  0.000000000  3.506512436     0.000000000  0.000000000  0.285183646

  length of vectors
     4.964631010  3.506512436  3.506512436     0.201424839  0.285183646  0.285183646


 FORCES acting on ions
    electron-ion (+dipol)            ewald-force                    non-local-force                 convergence-correction
 -----------------------------------------------------------------------------------------------
   0.537E-04 0.837E-14 -.111E-13   -.284E-13 -.641E-14 0.902E-15   0.000E+00 0.867E-18 0.173E-17   -.330E-13 0.414E-14 0.613E-14
   0.537E-04 -.197E-11 -.939E-12   -.284E-13 -.490E-14 0.368E-14   0.000E+00 0.867E-18 -.173E-17   -.106E-12 0.452E-14 0.179E-13
   -.244E-03 -.743E-13 0.321E-12   0.256E-13 0.665E-14 -.460E-14   0.000E+00 0.000E+00 0.000E+00   0.135E-12 0.683E-14 0.220E-13
   -.244E-03 0.499E-13 0.401E-12   0.313E-13 0.475E-14 -.307E-14   0.000E+00 0.000E+00 0.000E+00   0.139E-12 0.171E-13 0.120E-13
 -----------------------------------------------------------------------------------------------
   -.380E-03 -.198E-11 -.229E-12   0.399E-16 0.847E-16 -.309E-14   0.000E+00 0.173E-17 0.000E+00   0.135E-12 0.326E-13 0.580E-13


 POSITION                                       TOTAL-FORCE (eV/Angst)
 -----------------------------------------------------------------------------------
      0.00000      0.00000      0.00000         0.000000      0.000000     -0.000000
      2.48232      1.75326      1.75326         0.000000     -0.000000      0.000000
      1.24116      1.75326      0.00000        -0.000000     -0.000000     -0.000000
      3.72347      0.00000      1.75326        -0.000000     -0.000000     -0.000000
 -----------------------------------------------------------------------------------
    total drift:                               -0.000380     -0.000000     -0.000000


--------------------------------------------------------------------------------------------------------



  FREE ENERGIE OF THE ION-ELECTRON SYSTEM (eV)
  ---------------------------------------------------
  free  energy   TOTEN  =       -18.27060184 eV

  energy  without entropy=      -18.27060184  energy(sigma->0) =      -18.27060184



--------------------------------------------------------------------------------------------------------


    POTLOK:  cpu time    0.0040: real time    0.0047


--------------------------------------------------------------------------------------------------------


 writing wavefunctions
     LOOP+:  cpu time    4.6593: real time    5.2208
    4ORBIT:  cpu time    0.0000: real time    0.0000



 total charge

# of ion     s       p       d       tot
----------------------------------------
  1        0.412   0.318   9.838  10.568
  2        0.412   0.318   9.838  10.568
  3        1.553   3.313   0.000   4.866
  4        1.553   3.313   0.000   4.866
------------------------------------------------
tot        3.929   7.263  19.676  30.868

 BZINTS: Fermi energy: -0.834330; 36.000000 electrons
         Band energy:-204.016654;  BLOECHL correction:  0.000000

 total amount of memory used by VASP on root node    31628. kBytes
========================================================================

   base      :      30000. kBytes
   nonlr-proj:        336. kBytes
   fftplans  :        159. kBytes
   grid      :        210. kBytes
   one-center:         15. kBytes
   wavefun   :        908. kBytes



 General timing and accounting informations for this job:
 ========================================================

                  Total CPU time used (sec):        6.450
                            User time (sec):        5.662
                          System time (sec):        0.787
                         Elapsed time (sec):        7.092

                   Maximum memory used (kb):    27066368.
                   Average memory used (kb):           0.

                          Minor page faults:         6506
                          Major page faults:          510
                 Voluntary context switches:           12
