 vasp.5.4.1 24Jun15 (build Sep 15 2015 10:29:54) complex

 executed on           IFC91_ompi date 2017.09.01  10:04:21
 running on    8 total cores
 distrk:  each k-point on    8 cores,    1 groups
 distr:  one band on NCORES_PER_BAND=   4 cores,    2 groups


--------------------------------------------------------------------------------------------------------


 INCAR:
 POTCAR:    PAW_PBE Zn 06Sep2000
 POTCAR:    PAW_PBE S 06Sep2000
 POTCAR:    PAW_PBE Zn 06Sep2000
   VRHFIN =Zn: d10 p2
   LEXCH  = PE
   EATOM  =  1748.8345 eV,  128.5357 Ry

   TITEL  = PAW_PBE Zn 06Sep2000
   LULTRA =        F    use ultrasoft PP ?
   IUNSCR =        1    unscreen: 0-lin 1-nonlin 2-no
   RPACOR =    2.000    partial core radius
   POMASS =   65.390; ZVAL   =   12.000    mass and valenz
   RCORE  =    2.300    outmost cutoff radius
   RWIGS  =    2.400; RWIGS  =    1.270    wigner-seitz radius (au A)
   ENMAX  =  276.723; ENMIN  =  207.542 eV
   RCLOC  =    1.828    cutoff for local pot
   LCOR   =        T    correct aug charges
   LPAW   =        T    paw PP
   EAUG   =  575.892
   DEXC   =    0.000
   RMAX   =    2.347    core radius for proj-oper
   RAUG   =    1.300    factor for augmentation sphere
   RDEP   =    2.324    radius for radial grids
   RDEPT  =    1.788    core radius for aug-charge

   Atomic configuration
    9 entries
     n  l   j            E        occ.
     1  0  0.50     -9524.6913   2.0000
     2  0  0.50     -1158.1882   2.0000
     2  1  1.50     -1003.8506   6.0000
     3  0  0.50      -129.2194   2.0000
     3  1  1.50       -83.3890   6.0000
     3  2  2.50       -10.1410  10.0000
     4  0  0.50        -5.9785   2.0000
     4  1  0.50        -4.0817   0.0000
     4  3  2.50        -1.3606   0.0000
   Description
     l       E           TYP  RCUT    TYP  RCUT
     2    -10.1410010     23  2.300
     2    -11.5015836     23  2.300
     0     -5.9785163     23  2.300
     0      1.1858015     23  2.300
     1     -2.7211652     23  2.300
     1     13.2444212     23  2.300
  local pseudopotential read in
  partial core-charges read in
  partial kinetic energy density read in
  atomic valenz-charges read in
  non local Contribution for L=           2  read in
    real space projection operators read in
  non local Contribution for L=           2  read in
    real space projection operators read in
  non local Contribution for L=           0  read in
    real space projection operators read in
  non local Contribution for L=           0  read in
    real space projection operators read in
  non local Contribution for L=           1  read in
    real space projection operators read in
  non local Contribution for L=           1  read in
    real space projection operators read in
    PAW grid and wavefunctions read in

   number of l-projection  operators is LMAX  =           6
   number of lm-projection operators is LMMAX =          18

 POTCAR:    PAW_PBE S 06Sep2000
   VRHFIN =S : s2p4
   LEXCH  = PE
   EATOM  =   276.8230 eV,   20.3459 Ry

   TITEL  = PAW_PBE S 06Sep2000
   LULTRA =        F    use ultrasoft PP ?
   IUNSCR =        1    unscreen: 0-lin 1-nonlin 2-no
   RPACOR =    1.500    partial core radius
   POMASS =   32.066; ZVAL   =    6.000    mass and valenz
   RCORE  =    1.900    outmost cutoff radius
   RWIGS  =    2.200; RWIGS  =    1.164    wigner-seitz radius (au A)
   ENMAX  =  258.689; ENMIN  =  194.016 eV
   ICORE  =        2    local potential
   LCOR   =        T    correct aug charges
   LPAW   =        T    paw PP
   EAUG   =  335.092
   DEXC   =    0.000
   RMAX   =    1.942    core radius for proj-oper
   RAUG   =    1.300    factor for augmentation sphere
   RDEP   =    1.954    radius for radial grids
   RDEPT  =    1.744    core radius for aug-charge

   Atomic configuration
    6 entries
     n  l   j            E        occ.
     1  0  0.50     -2405.8406   2.0000
     2  0  0.50      -211.7007   2.0000
     2  1  1.50      -156.4958   6.0000
     3  0  0.50       -17.2562   2.0000
     3  1  0.50        -7.0085   4.0000
     3  2  1.50        -6.8029   0.0000
   Description
     l       E           TYP  RCUT    TYP  RCUT
     0    -17.2561641     23  1.900
     0    -15.8743224     23  1.900
     1     -7.0085400     23  1.900
     1     -2.7779785     23  1.900
     2     -6.8029130     23  1.900
  local pseudopotential read in
  partial core-charges read in
  partial kinetic energy density read in
  atomic valenz-charges read in
  non local Contribution for L=           0  read in
    real space projection operators read in
  non local Contribution for L=           0  read in
    real space projection operators read in
  non local Contribution for L=           1  read in
    real space projection operators read in
  non local Contribution for L=           1  read in
    real space projection operators read in
    PAW grid and wavefunctions read in

   number of l-projection  operators is LMAX  =           4
   number of lm-projection operators is LMMAX =           8


 -----------------------------------------------------------------------------
|                                                                             |
|  ADVICE TO THIS USER RUNNING 'VASP/VAMP'   (HEAR YOUR MASTER'S VOICE ...):  |
|                                                                             |
|      You have a (more or less) 'small supercell' and for smaller cells      |
|      it is recommended  to use the reciprocal-space projection scheme!      |
|      The real space optimization is not  efficient for small cells and it   |
|      is also less accurate ...                                              |
|      Therefore set LREAL=.FALSE. in the  INCAR file                         |
|                                                                             |
 -----------------------------------------------------------------------------

 Optimization of the real space projectors (new method)

 maximal supplied QI-value         = 16.25
 optimisation between [QCUT,QGAM] = [ 11.38, 22.75] = [ 36.24,144.96] Ry
 Optimized for a Real-space Cutoff    1.39 Angstroem

   l    n(q)    QCUT    max X(q) W(low)/X(q) W(high)/X(q)  e(spline)
   2      8    11.376    46.356    0.27E-03    0.53E-04    0.10E-06
   2      8    11.376    41.843    0.28E-03    0.56E-04    0.10E-06
   0      9    11.376    48.958    0.76E-04    0.12E-03    0.19E-06
   0      9    11.376    32.776    0.72E-04    0.11E-03    0.18E-06
   1      9    11.376    17.787    0.48E-03    0.13E-03    0.16E-06
   1      9    11.376    14.435    0.43E-03    0.12E-03    0.15E-06
 Optimization of the real space projectors (new method)

 maximal supplied QI-value         = 19.84
 optimisation between [QCUT,QGAM] = [ 11.31, 22.82] = [ 35.82,145.81] Ry
 Optimized for a Real-space Cutoff    1.16 Angstroem

   l    n(q)    QCUT    max X(q) W(low)/X(q) W(high)/X(q)  e(spline)
   0      8    11.310   187.594    0.35E-03    0.37E-03    0.44E-07
   0      8    11.310   164.243    0.34E-03    0.37E-03    0.44E-07
   1      7    11.310    67.533    0.33E-03    0.37E-03    0.88E-07
   1      7    11.310    50.729    0.32E-03    0.36E-03    0.86E-07

 -----------------------------------------------------------------------------
|                                                                             |
|  ADVICE TO THIS USER RUNNING 'VASP/VAMP'   (HEAR YOUR MASTER'S VOICE ...):  |
|                                                                             |
|      You enforced a specific xc-type in the INCAR file,                     |
|      a different type was found on the POTCAR file                          |
|          I HOPE YOU KNOW, WHAT YOU ARE  DOING                               |
|                                                                             |
 -----------------------------------------------------------------------------

  PAW_PBE Zn 06Sep2000                  :
 energy of atom  1       EATOM=-1748.8345
 kinetic energy error for atom=    0.0029 (will be added to EATOM!!)
  PAW_PBE S 06Sep2000                   :
 energy of atom  2       EATOM= -276.8230
 kinetic energy error for atom=    0.0020 (will be added to EATOM!!)


 POSCAR: Zn O
  positions in direct lattice
  velocities in cartesian coordinates
 exchange correlation table for  LEXCH =       14
   RHO(1)=    0.500       N(1)  =     2000
   RHO(2)=  100.500       N(2)  =     4000



--------------------------------------------------------------------------------------------------------


 ion  position               nearest neighbor table
   1  0.000  0.000  0.000-   3 2.15   4 2.15   4 2.15   3 2.15
   2  0.500  0.500  0.500-   3 2.15   4 2.15   3 2.15   4 2.15
   3  0.250  0.500  0.000-   1 2.15   2 2.15   2 2.15   1 2.15
   4  0.750  0.000  0.500-   1 2.15   2 2.15   1 2.15   2 2.15

  LATTYP: Found a simple tetragonal cell.
 ALAT       =     3.5065124364
 C/A-ratio  =     1.4158315706

  Lattice vectors:

 A1 = (   0.0000000000,   3.5065124364,   0.0000000000)
 A2 = (   0.0000000000,   0.0000000000,  -3.5065124364)
 A3 = (  -4.9646310102,   0.0000000000,   0.0000000000)


Analysis of symmetry for initial positions (statically):
=====================================================================
 Subroutine PRICEL returns following result:

  LATTYP: Found a body centered tetragonal cell.
 ALAT       =     3.5065124364
 C/A-ratio  =     1.4158315706

  Lattice vectors:

 A1 = (   2.4823155051,   1.7532562182,  -1.7532562182)
 A2 = (   2.4823155051,  -1.7532562182,   1.7532562182)
 A3 = (  -2.4823155051,  -1.7532562182,  -1.7532562182)

   2 primitive cells build up your supercell.


 Routine SETGRP: Setting up the symmetry group for a
 simple tetragonal supercell.


 Subroutine GETGRP returns: Found  8 space group operations
 (whereof  8 operations were pure point group operations)
 out of a pool of 16 trial point group operations.


The static configuration has the point symmetry D_2d.


Analysis of symmetry for dynamics (positions and initial velocities):
=====================================================================
 Subroutine PRICEL returns following result:

  LATTYP: Found a body centered tetragonal cell.
 ALAT       =     3.5065124364
 C/A-ratio  =     1.4158315706

  Lattice vectors:

 A1 = (   2.4823155051,   1.7532562182,  -1.7532562182)
 A2 = (   2.4823155051,  -1.7532562182,   1.7532562182)
 A3 = (  -2.4823155051,  -1.7532562182,  -1.7532562182)

   2 primitive cells build up your supercell.


 Routine SETGRP: Setting up the symmetry group for a
 simple tetragonal supercell.


 Subroutine GETGRP returns: Found  8 space group operations
 (whereof  8 operations were pure point group operations)
 out of a pool of 16 trial point group operations.


The dynamic configuration has the point symmetry D_2d.


 KPOINTS: Automatically generated k-point mesh

Automatic generation of k-mesh.
Space group operators:
 irot       det(A)        alpha          n_x          n_y          n_z        tau_x        tau_y        tau_z
    1     1.000000     0.000000     1.000000     0.000000     0.000000     0.000000     0.000000     0.000000
    2    -1.000000    90.000000     1.000000     0.000000     0.000000     0.000000     0.000000     0.000000
    3     1.000000   180.000000     1.000000     0.000000     0.000000     0.000000     0.000000     0.000000
    4    -1.000000    90.000000    -1.000000     0.000000     0.000000     0.000000     0.000000     0.000000
    5    -1.000000   180.000000     0.000000     0.000000     1.000000     0.000000     0.000000     0.000000
    6     1.000000   180.000000     0.000000    -0.707107     0.707107     0.000000     0.000000     0.000000
    7    -1.000000   180.000000     0.000000     1.000000     0.000000     0.000000     0.000000     0.000000
    8     1.000000   180.000000     0.000000     0.707107     0.707107     0.000000     0.000000     0.000000

 Subroutine IBZKPT returns following result:
 ===========================================

 Found     18 irreducible k-points:

 Following reciprocal coordinates:
            Coordinates               Weight
  0.000000  0.000000  0.000000      1.000000
  0.250000  0.000000  0.000000      2.000000
  0.500000  0.000000  0.000000      1.000000
  0.000000  0.250000  0.000000      4.000000
  0.250000  0.250000  0.000000      8.000000
  0.500000  0.250000  0.000000      4.000000
  0.000000  0.500000  0.000000      2.000000
  0.250000  0.500000  0.000000      4.000000
  0.500000  0.500000  0.000000      2.000000
  0.000000  0.250000  0.250000      4.000000
  0.250000  0.250000  0.250000      8.000000
  0.500000  0.250000  0.250000      4.000000
  0.000000  0.500000  0.250000      4.000000
  0.250000  0.500000  0.250000      8.000000
  0.500000  0.500000  0.250000      4.000000
  0.000000  0.500000  0.500000      1.000000
  0.250000  0.500000  0.500000      2.000000
  0.500000  0.500000  0.500000      1.000000

 Following cartesian coordinates:
            Coordinates               Weight
  0.000000  0.000000  0.000000      1.000000
  0.050356  0.000000  0.000000      2.000000
  0.100712  0.000000  0.000000      1.000000
  0.000000  0.071296  0.000000      4.000000
  0.050356  0.071296  0.000000      8.000000
  0.100712  0.071296  0.000000      4.000000
  0.000000  0.142592  0.000000      2.000000
  0.050356  0.142592  0.000000      4.000000
  0.100712  0.142592  0.000000      2.000000
  0.000000  0.071296  0.071296      4.000000
  0.050356  0.071296  0.071296      8.000000
  0.100712  0.071296  0.071296      4.000000
  0.000000  0.142592  0.071296      4.000000
  0.050356  0.142592  0.071296      8.000000
  0.100712  0.142592  0.071296      4.000000
  0.000000  0.142592  0.142592      1.000000
  0.050356  0.142592  0.142592      2.000000
  0.100712  0.142592  0.142592      1.000000

 TETIRR: Found     96 inequivalent tetrahedra from      384


--------------------------------------------------------------------------------------------------------




 Dimension of arrays:
   k-points           NKPTS =     18   k-points in BZ     NKDIM =     18   number of bands    NBANDS=     22
   number of dos      NEDOS =    301   number of ions     NIONS =      4
   non local maximal  LDIM  =      6   non local SUM 2l+1 LMDIM =     18
   total plane-waves  NPLWV =  11200
   max r-space proj   IRMAX =   2112   max aug-charges    IRDMAX=    922
   dimension x,y,z NGX =    28 NGY =   20 NGZ =   20
   dimension x,y,z NGXF=    28 NGYF=   20 NGZF=   20
   support grid    NGXF=    28 NGYF=   20 NGZF=   20
   ions per type =               2   2
 NGX,Y,Z   is equivalent  to a cutoff of   9.38,  9.48,  9.48 a.u.
 NGXF,Y,Z  is equivalent  to a cutoff of   9.38,  9.48,  9.48 a.u.


 I would recommend the setting:
   dimension x,y,z NGX =    27 NGY =   19 NGZ =   19
 SYSTEM =  Name
 POSCAR =  Zn O

 Startparameter for this run:
   NWRITE =      2    write-flag & timer
   PREC   = single    normal or accurate (medium, high low for compatibility)
   ISTART =      0    job   : 0-new  1-cont  2-samecut
   ICHARG =      2    charge: 1-file 2-atom 10-const
   ISPIN  =      1    spin polarized calculation?
   LNONCOLLINEAR =      F non collinear calculations
   LSORBIT =      F    spin-orbit coupling
   INIWAV =      1    electr: 0-lowe 1-rand  2-diag
   LASPH  =      F    aspherical Exc in radial PAW
   METAGGA=      F    non-selfconsistent MetaGGA calc.

 Electronic Relaxation 1
   ENCUT  =  500.0 eV  36.75 Ry    6.06 a.u.   9.05  6.39  6.39*2*pi/ulx,y,z
   ENINI  =  500.0     initial cutoff
   ENAUG  =  575.9 eV  augmentation charge cutoff
   NELM   =     60;   NELMIN=  2; NELMDL= -5     # of ELM steps
   EDIFF  = 0.1E-05   stopping-criterion for ELM
   LREAL  =      T    real-space projection
   NLSPLINE    = F    spline interpolate recip. space projectors
   LCOMPAT=      F    compatible to vasp.4.4
   GGA_COMPAT  = T    GGA compatible to vasp.4.4-vasp.4.6
   LMAXPAW     = -100 max onsite density
   LMAXMIX     =    2 max onsite mixed and CHGCAR
   VOSKOWN=      0    Vosko Wilk Nusair interpolation
   ROPT   =   -0.00050  -0.00050
 Ionic relaxation
   EDIFFG = 0.1E-02   stopping-criterion for IOM
   NSW    =      0    number of steps for IOM
   NBLOCK =      1;   KBLOCK =      1    inner block; outer block
   IBRION =     -1    ionic relax: 0-MD 1-quasi-New 2-CG
   NFREE  =      0    steps in history (QN), initial steepest desc. (CG)
   ISIF   =      3    stress and relaxation
   IWAVPR =     10    prediction:  0-non 1-charg 2-wave 3-comb
   ISYM   =      2    0-nonsym 1-usesym 2-fastsym
   LCORR  =      T    Harris-Foulkes like correction to forces

   POTIM  = 0.5000    time-step for ionic-motion
   TEIN   =    0.0    initial temperature
   TEBEG  =    0.0;   TEEND  =   0.0 temperature during run
   SMASS  =  -3.00    Nose mass-parameter (am)
   estimated Nose-frequenzy (Omega)   =  0.10E-29 period in steps =****** mass=  -0.563E-27a.u.
   SCALEE = 1.0000    scale energy and forces
   NPACO  =    256;   APACO  = 16.0  distance and # of slots for P.C.
   PSTRESS=    0.0 pullay stress

  Mass of Ions in am
   POMASS =  65.39 32.07
  Ionic Valenz
   ZVAL   =  12.00  6.00
  Atomic Wigner-Seitz radii
   RWIGS  =  -1.00 -1.00
  virtual crystal weights
   VCA    =   1.00  1.00
   NELECT =      36.0000    total number of electrons
   NUPDOWN=      -1.0000    fix difference up-down

 DOS related values:
   EMIN   =  10.00;   EMAX   =-10.00  energy-range for DOS
   EFERMI =   0.00
   ISMEAR =    -5;   SIGMA  =   0.10  broadening in eV -4-tet -1-fermi 0-gaus

 Electronic relaxation 2 (details)
   IALGO  =     38    algorithm
   LDIAG  =      T    sub-space diagonalisation (order eigenvalues)
   LSUBROT=      F    optimize rotation matrix (better conditioning)
   TURBO    =      0    0=normal 1=particle mesh
   IRESTART =      0    0=no restart 2=restart with 2 vectors
   NREBOOT  =      0    no. of reboots
   NMIN     =      0    reboot dimension
   EREF     =   0.00    reference energy to select bands
   IMIX   =      4    mixing-type and parameters
     AMIX     =   0.40;   BMIX     =  1.00
     AMIX_MAG =   1.60;   BMIX_MAG =  1.00
     AMIN     =   0.01
     WC   =   100.;   INIMIX=   1;  MIXPRE=   1;  MAXMIX= -45

 Intra band minimization:
   WEIMIN = 0.0000     energy-eigenvalue tresh-hold
   EBREAK =  0.11E-07  absolut break condition
   DEPER  =   0.30     relativ break condition

   TIME   =   0.40     timestep for ELM

  volume/ion in A,a.u.               =      15.26       102.99
  Fermi-wavevector in a.u.,A,eV,Ry     =   1.372871  2.594350 25.643920  1.884775
  Thomas-Fermi vector in A             =   2.498439

 Write flags
   LWAVE  =      T    write WAVECAR
   LCHARG =      T    write CHGCAR
   LVTOT  =      F    write LOCPOT, total local potential
   LVHAR  =      F    write LOCPOT, Hartree potential only
   LELF   =      F    write electronic localiz. function (ELF)
   LORBIT =     10    0 simple, 1 ext, 2 COOP (PROOUT)


 Dipole corrections
   LMONO  =      F    monopole corrections only (constant potential shift)
   LDIPOL =      F    correct potential (dipole corrections)
   IDIPOL =      0    1-x, 2-y, 3-z, 4-all directions
   EPSILON=  1.0000000 bulk dielectric constant

 Core level calculations are selected ICORELEVEL =  1
 Exchange correlation treatment:
   GGA     =    PS    GGA type
   LEXCH   =    14    internal setting for exchange type
   VOSKOWN=      0    Vosko Wilk Nusair interpolation
   LHFCALC =     F    Hartree Fock is set to
   LHFONE  =     F    Hartree Fock one center treatment
   AEXX    =    0.0000 exact exchange contribution

 Linear response parameters
   LEPSILON=     F    determine dielectric tensor
   LRPA    =     F    only Hartree local field effects (RPA)
   LNABLA  =     F    use nabla operator in PAW spheres
   LVEL    =     F    velocity operator in full k-point grid
   LINTERFAST=   F  fast interpolation
   KINTER  =     0    interpolate to denser k-point grid
   CSHIFT  =0.1000    complex shift for real part using Kramers Kronig
   OMEGAMAX=  -1.0    maximum frequency
   DEG_THRESHOLD= 0.2000000E-02 threshold for treating states as degnerate
   RTIME   =    0.100 relaxation time in fs

 Orbital magnetization related:
   ORBITALMAG=     F  switch on orbital magnetization
   LCHIMAG   =     F  perturbation theory with respect to B field
   DQ        =  0.001000  dq finite difference perturbation B field



--------------------------------------------------------------------------------------------------------


 Static calculation
 charge density and potential will be updated during run
 non-spin polarized calculation
 Variant of blocked Davidson
 Davidson routine will perform the subspace rotation
 perform sub-space diagonalisation
    after iterative eigenvector-optimisation
 modified Broyden-mixing scheme, WC =      100.0
 initial mixing is a Kerker type mixing with AMIX =  0.4000 and BMIX =      1.0000
 Hartree-type preconditioning will be used
 using additional bands            4
 real space projection scheme for non local part
 use partial core corrections
 calculate Harris-corrections to forces
   (improved forces if not selfconsistent)
 use gradient corrections
 use of overlap-Matrix (Vanderbilt PP)
 Fermi weights with tetrahedron method with Bloechl corrections


--------------------------------------------------------------------------------------------------------


  energy-cutoff  :      500.00
  volume of cell :       61.04
      direct lattice vectors                 reciprocal lattice vectors
     4.964631010  0.000000000  0.000000000     0.201424839  0.000000000  0.000000000
     0.000000000  3.506512436  0.000000000     0.000000000  0.285183646  0.000000000
     0.000000000  0.000000000  3.506512436     0.000000000  0.000000000  0.285183646

  length of vectors
     4.964631010  3.506512436  3.506512436     0.201424839  0.285183646  0.285183646



 k-points in units of 2pi/SCALE and weight: Automatically generated k-point mesh
   0.00000000  0.00000000  0.00000000       0.016
   0.05035621  0.00000000  0.00000000       0.031
   0.10071242  0.00000000  0.00000000       0.016
   0.00000000  0.07129591  0.00000000       0.062
   0.05035621  0.07129591  0.00000000       0.125
   0.10071242  0.07129591  0.00000000       0.062
   0.00000000  0.14259182  0.00000000       0.031
   0.05035621  0.14259182  0.00000000       0.062
   0.10071242  0.14259182  0.00000000       0.031
   0.00000000  0.07129591  0.07129591       0.062
   0.05035621  0.07129591  0.07129591       0.125
   0.10071242  0.07129591  0.07129591       0.062
   0.00000000  0.14259182  0.07129591       0.062
   0.05035621  0.14259182  0.07129591       0.125
   0.10071242  0.14259182  0.07129591       0.062
   0.00000000  0.14259182  0.14259182       0.016
   0.05035621  0.14259182  0.14259182       0.031
   0.10071242  0.14259182  0.14259182       0.016

 k-points in reciprocal lattice and weights: Automatically generated k-point mesh
   0.00000000  0.00000000  0.00000000       0.016
   0.25000000  0.00000000  0.00000000       0.031
   0.50000000  0.00000000  0.00000000       0.016
   0.00000000  0.25000000  0.00000000       0.062
   0.25000000  0.25000000  0.00000000       0.125
   0.50000000  0.25000000  0.00000000       0.062
   0.00000000  0.50000000  0.00000000       0.031
   0.25000000  0.50000000  0.00000000       0.062
   0.50000000  0.50000000  0.00000000       0.031
   0.00000000  0.25000000  0.25000000       0.062
   0.25000000  0.25000000  0.25000000       0.125
   0.50000000  0.25000000  0.25000000       0.062
   0.00000000  0.50000000  0.25000000       0.062
   0.25000000  0.50000000  0.25000000       0.125
   0.50000000  0.50000000  0.25000000       0.062
   0.00000000  0.50000000  0.50000000       0.016
   0.25000000  0.50000000  0.50000000       0.031
   0.50000000  0.50000000  0.50000000       0.016

 position of ions in fractional coordinates (direct lattice)
   0.00000000  0.00000000  0.00000000
   0.50000000  0.50000000  0.50000000
   0.25000000  0.50000000  0.00000000
   0.75000000  0.00000000  0.50000000

 position of ions in cartesian coordinates  (Angst):
   0.00000000  0.00000000  0.00000000
   2.48231551  1.75325622  1.75325622
   1.24115775  1.75325622  0.00000000
   3.72347326  0.00000000  1.75325622



--------------------------------------------------------------------------------------------------------


 k-point  1 :   0.0000 0.0000 0.0000  plane waves:    1523
 k-point  2 :   0.2500 0.0000 0.0000  plane waves:    1554
 k-point  3 :   0.5000 0.0000 0.0000  plane waves:    1538
 k-point  4 :   0.0000 0.2500 0.0000  plane waves:    1537
 k-point  5 :   0.2500 0.2500 0.0000  plane waves:    1561
 k-point  6 :   0.5000 0.2500 0.0000  plane waves:    1566
 k-point  7 :   0.0000 0.5000 0.0000  plane waves:    1568
 k-point  8 :   0.2500 0.5000 0.0000  plane waves:    1556
 k-point  9 :   0.5000 0.5000 0.0000  plane waves:    1556
 k-point 10 :   0.0000 0.2500 0.2500  plane waves:    1541
 k-point 11 :   0.2500 0.2500 0.2500  plane waves:    1551
 k-point 12 :   0.5000 0.2500 0.2500  plane waves:    1568
 k-point 13 :   0.0000 0.5000 0.2500  plane waves:    1544
 k-point 14 :   0.2500 0.5000 0.2500  plane waves:    1554
 k-point 15 :   0.5000 0.5000 0.2500  plane waves:    1528
 k-point 16 :   0.0000 0.5000 0.5000  plane waves:    1548
 k-point 17 :   0.2500 0.5000 0.5000  plane waves:    1540
 k-point 18 :   0.5000 0.5000 0.5000  plane waves:    1544

 maximum and minimum number of plane-waves per node :       409      366

 maximum number of plane-waves:      1568
 maximum index in each direction:
   IXMAX=    9   IYMAX=    6   IZMAX=    6
   IXMIN=   -9   IYMIN=   -6   IZMIN=   -6

 WARNING: aliasing errors must be expected set NGX to  38 to avoid them
 WARNING: aliasing errors must be expected set NGY to  26 to avoid them
 WARNING: aliasing errors must be expected set NGZ to  26 to avoid them
 aliasing errors are usually negligible using standard VASP settings
 and one can safely disregard these warnings

 real space projection operators:
  total allocation   :        706.34 KBytes
  max/ min on nodes  :        179.19        173.98


 parallel 3D FFT for wavefunctions:
    minimum data exchange during FFTs selected (reduces bandwidth)
 parallel 3D FFT for charge:
    minimum data exchange during FFTs selected (reduces bandwidth)


 total amount of memory used by VASP on root node    32091. kBytes
========================================================================

   base      :      30000. kBytes
   nonlr-proj:        352. kBytes
   fftplans  :        159. kBytes
   grid      :        210. kBytes
   one-center:         15. kBytes
   wavefun   :       1355. kBytes

     INWAV:  cpu time    0.0000: real time    0.0000
 Broyden mixing: mesh for mixing (old mesh)
   NGX = 19   NGY = 13   NGZ = 13
  (NGX  = 28   NGY  = 20   NGZ  = 20)
  gives a total of   3211 points

 initial charge density was supplied:
 charge density of overlapping atoms calculated
 number of electron      36.0000000 magnetization
 keeping initial charge density in first step


--------------------------------------------------------------------------------------------------------


 Maximum index for non-local projection operator          492
 Maximum index for augmentation-charges          142 (set IRDMAX)


--------------------------------------------------------------------------------------------------------


 First call to EWALD:  gamma=   0.450
 Maximum number of real-space cells 2x 3x 3
 Maximum number of reciprocal cells 3x 2x 2

 FEWALD executed in parallel
    FEWALD:  cpu time    0.0020: real time    0.0022


----------------------------------------- Iteration    1(   1)  ---------------------------------------


    POTLOK:  cpu time    0.0024: real time    0.0032
    SETDIJ:  cpu time    0.0022: real time    0.0032
     EDDAV:  cpu time    0.3636: real time    0.4147
 BZINTS: Fermi energy: 18.650771; 36.000000 electrons
         Band energy: 197.476750;  BLOECHL correction: -0.225781
       DOS:  cpu time    0.0040: real time    0.0041
    --------------------------------------------
      LOOP:  cpu time    0.3792: real time    0.4398

 eigenvalue-minimisations  :   792
 total energy-change (2. order) : 0.2349426E+03  (-0.1784222E+04)
 number of electron      36.0000000 magnetization
 augmentation part       36.0000000 magnetization

 Free energy of the ion-electron system (eV)
  ---------------------------------------------------
  alpha Z        PSCENC =       185.24551836
  Ewald energy   TEWEN  =     -2730.71446512
  -Hartree energ DENC   =     -1259.87595644
  -exchange      EXHF   =         0.00000000
  -V(xc)+E(xc)   XCENC  =       143.23959114
  PAW double counting   =      3343.44361914    -3692.01684003
  entropy T*S    EENTRO =         0.00000000
  eigenvalues    EBANDS =       197.47674990
  atomic energy  EATOM  =      4048.14435094
  Solvation  Ediel_sol  =         0.00000000
  ---------------------------------------------------
  free energy    TOTEN  =       234.94256790 eV

  energy without entropy =      234.94256790  energy(sigma->0) =      234.94256790


--------------------------------------------------------------------------------------------------------




----------------------------------------- Iteration    1(   2)  ---------------------------------------


     EDDAV:  cpu time    0.3520: real time    0.3865
 BZINTS: Fermi energy:  6.592817; 36.000000 electrons
         Band energy: -30.360467;  BLOECHL correction:  0.000000
       DOS:  cpu time    0.0013: real time    0.0013
    --------------------------------------------
      LOOP:  cpu time    0.3545: real time    0.3895

 eigenvalue-minimisations  :   816
 total energy-change (2. order) :-0.2278372E+03  (-0.2224124E+03)
 number of electron      36.0000000 magnetization
 augmentation part       36.0000000 magnetization

 Free energy of the ion-electron system (eV)
  ---------------------------------------------------
  alpha Z        PSCENC =       185.24551836
  Ewald energy   TEWEN  =     -2730.71446512
  -Hartree energ DENC   =     -1259.87595644
  -exchange      EXHF   =         0.00000000
  -V(xc)+E(xc)   XCENC  =       143.23959114
  PAW double counting   =      3343.44361914    -3692.01684003
  entropy T*S    EENTRO =         0.00000000
  eigenvalues    EBANDS =       -30.36046748
  atomic energy  EATOM  =      4048.14435094
  Solvation  Ediel_sol  =         0.00000000
  ---------------------------------------------------
  free energy    TOTEN  =         7.10535052 eV

  energy without entropy =        7.10535052  energy(sigma->0) =        7.10535052


--------------------------------------------------------------------------------------------------------




----------------------------------------- Iteration    1(   3)  ---------------------------------------


     EDDAV:  cpu time    0.3922: real time    0.4314
 BZINTS: Fermi energy:  4.582222; 36.000000 electrons
         Band energy: -51.886560;  BLOECHL correction:  0.000000
       DOS:  cpu time    0.0013: real time    0.0014
    --------------------------------------------
      LOOP:  cpu time    0.3942: real time    0.4338

 eigenvalue-minimisations  :   918
 total energy-change (2. order) :-0.2152609E+02  (-0.2145334E+02)
 number of electron      36.0000000 magnetization
 augmentation part       36.0000000 magnetization

 Free energy of the ion-electron system (eV)
  ---------------------------------------------------
  alpha Z        PSCENC =       185.24551836
  Ewald energy   TEWEN  =     -2730.71446512
  -Hartree energ DENC   =     -1259.87595644
  -exchange      EXHF   =         0.00000000
  -V(xc)+E(xc)   XCENC  =       143.23959114
  PAW double counting   =      3343.44361914    -3692.01684003
  entropy T*S    EENTRO =         0.00000000
  eigenvalues    EBANDS =       -51.88656026
  atomic energy  EATOM  =      4048.14435094
  Solvation  Ediel_sol  =         0.00000000
  ---------------------------------------------------
  free energy    TOTEN  =       -14.42074226 eV

  energy without entropy =      -14.42074226  energy(sigma->0) =      -14.42074226


--------------------------------------------------------------------------------------------------------




----------------------------------------- Iteration    1(   4)  ---------------------------------------


     EDDAV:  cpu time    0.4241: real time    0.4920
 BZINTS: Fermi energy:  4.475878; 36.000000 electrons
         Band energy: -52.380123;  BLOECHL correction:  0.000000
       DOS:  cpu time    0.0012: real time    0.0012
    --------------------------------------------
      LOOP:  cpu time    0.4267: real time    0.4952

 eigenvalue-minimisations  :   930
 total energy-change (2. order) :-0.4935624E+00  (-0.4931826E+00)
 number of electron      36.0000000 magnetization
 augmentation part       36.0000000 magnetization

 Free energy of the ion-electron system (eV)
  ---------------------------------------------------
  alpha Z        PSCENC =       185.24551836
  Ewald energy   TEWEN  =     -2730.71446512
  -Hartree energ DENC   =     -1259.87595644
  -exchange      EXHF   =         0.00000000
  -V(xc)+E(xc)   XCENC  =       143.23959114
  PAW double counting   =      3343.44361914    -3692.01684003
  entropy T*S    EENTRO =         0.00000000
  eigenvalues    EBANDS =       -52.38012269
  atomic energy  EATOM  =      4048.14435094
  Solvation  Ediel_sol  =         0.00000000
  ---------------------------------------------------
  free energy    TOTEN  =       -14.91430469 eV

  energy without entropy =      -14.91430469  energy(sigma->0) =      -14.91430469


--------------------------------------------------------------------------------------------------------




----------------------------------------- Iteration    1(   5)  ---------------------------------------


     EDDAV:  cpu time    0.4202: real time    0.4875
 BZINTS: Fermi energy:  4.495586; 36.000000 electrons
         Band energy: -52.388947;  BLOECHL correction:  0.000000
       DOS:  cpu time    0.0011: real time    0.0011
    CHARGE:  cpu time    0.0164: real time    0.0177
    MIXING:  cpu time    0.0032: real time    0.0032
    --------------------------------------------
      LOOP:  cpu time    0.4418: real time    0.5111

 eigenvalue-minimisations  :   926
 total energy-change (2. order) :-0.8824281E-02  (-0.8823514E-02)
 number of electron      36.0003761 magnetization
 augmentation part       13.9455468 magnetization

 Broyden mixing:
  rms(total) = 0.15918E+01    rms(broyden)= 0.15917E+01
  rms(prec ) = 0.18728E+01
  weight for this iteration     100.00

 Free energy of the ion-electron system (eV)
  ---------------------------------------------------
  alpha Z        PSCENC =       185.24551836
  Ewald energy   TEWEN  =     -2730.71446512
  -Hartree energ DENC   =     -1259.87595644
  -exchange      EXHF   =         0.00000000
  -V(xc)+E(xc)   XCENC  =       143.23959114
  PAW double counting   =      3343.44361914    -3692.01684003
  entropy T*S    EENTRO =         0.00000000
  eigenvalues    EBANDS =       -52.38894697
  atomic energy  EATOM  =      4048.14435094
  Solvation  Ediel_sol  =         0.00000000
  ---------------------------------------------------
  free energy    TOTEN  =       -14.92312897 eV

  energy without entropy =      -14.92312897  energy(sigma->0) =      -14.92312897


--------------------------------------------------------------------------------------------------------




----------------------------------------- Iteration    1(   6)  ---------------------------------------


    POTLOK:  cpu time    0.0024: real time    0.0029
    SETDIJ:  cpu time    0.0021: real time    0.0026
     EDDAV:  cpu time    0.4166: real time    0.4610
 BZINTS: Fermi energy:  4.529517; 36.000000 electrons
         Band energy: -77.548883;  BLOECHL correction:  0.000000
       DOS:  cpu time    0.0013: real time    0.0013
    CHARGE:  cpu time    0.0146: real time    0.0150
    MIXING:  cpu time    0.0003: real time    0.0003
    --------------------------------------------
      LOOP:  cpu time    0.4379: real time    0.4841

 eigenvalue-minimisations  :   986
 total energy-change (2. order) : 0.1020439E+01  (-0.2878104E+00)
 number of electron      36.0003822 magnetization
 augmentation part       14.2737943 magnetization

 Broyden mixing:
  rms(total) = 0.11606E+01    rms(broyden)= 0.11606E+01
  rms(prec ) = 0.12203E+01
  weight for this iteration     100.00

 eigenvalues of (default mixing * dielectric matrix)
  average eigenvalue GAMMA=   2.4066
  2.4066

 Free energy of the ion-electron system (eV)
  ---------------------------------------------------
  alpha Z        PSCENC =       185.24551836
  Ewald energy   TEWEN  =     -2730.71446512
  -Hartree energ DENC   =     -1238.63213188
  -exchange      EXHF   =         0.00000000
  -V(xc)+E(xc)   XCENC  =       142.71621338
  PAW double counting   =      3827.02488933    -4170.13818220
  entropy T*S    EENTRO =         0.00000000
  eigenvalues    EBANDS =       -77.54888269
  atomic energy  EATOM  =      4048.14435094
  Solvation  Ediel_sol  =         0.00000000
  ---------------------------------------------------
  free energy    TOTEN  =       -13.90268986 eV

  energy without entropy =      -13.90268986  energy(sigma->0) =      -13.90268986


--------------------------------------------------------------------------------------------------------




----------------------------------------- Iteration    1(   7)  ---------------------------------------


    POTLOK:  cpu time    0.0022: real time    0.0027
    SETDIJ:  cpu time    0.0022: real time    0.0026
     EDDAV:  cpu time    0.3453: real time    0.3790
 BZINTS: Fermi energy:  4.968650; 36.000000 electrons
         Band energy: -65.856243;  BLOECHL correction:  0.000000
       DOS:  cpu time    0.0012: real time    0.0014
    CHARGE:  cpu time    0.0150: real time    0.0156
    MIXING:  cpu time    0.0002: real time    0.0002
    --------------------------------------------
      LOOP:  cpu time    0.3668: real time    0.4027

 eigenvalue-minimisations  :   798
 total energy-change (2. order) :-0.2223851E-01  (-0.2768210E+00)
 number of electron      36.0003790 magnetization
 augmentation part       14.2569323 magnetization

 Broyden mixing:
  rms(total) = 0.46792E+00    rms(broyden)= 0.46792E+00
  rms(prec ) = 0.50330E+00
  weight for this iteration     100.00

 eigenvalues of (default mixing * dielectric matrix)
  average eigenvalue GAMMA=   1.7375
  0.7959  2.6791

 Free energy of the ion-electron system (eV)
  ---------------------------------------------------
  alpha Z        PSCENC =       185.24551836
  Ewald energy   TEWEN  =     -2730.71446512
  -Hartree energ DENC   =     -1241.66265462
  -exchange      EXHF   =         0.00000000
  -V(xc)+E(xc)   XCENC  =       143.18368132
  PAW double counting   =      4505.10721153    -4857.37232804
  entropy T*S    EENTRO =         0.00000000
  eigenvalues    EBANDS =       -65.85624275
  atomic energy  EATOM  =      4048.14435094
  Solvation  Ediel_sol  =         0.00000000
  ---------------------------------------------------
  free energy    TOTEN  =       -13.92492838 eV

  energy without entropy =      -13.92492838  energy(sigma->0) =      -13.92492838


--------------------------------------------------------------------------------------------------------




----------------------------------------- Iteration    1(   8)  ---------------------------------------


    POTLOK:  cpu time    0.0017: real time    0.0018
    SETDIJ:  cpu time    0.0024: real time    0.0025
     EDDAV:  cpu time    0.4461: real time    0.4857
 BZINTS: Fermi energy:  4.923098; 36.000000 electrons
         Band energy: -66.135643;  BLOECHL correction:  0.000000
       DOS:  cpu time    0.0013: real time    0.0014
    CHARGE:  cpu time    0.0148: real time    0.0156
    MIXING:  cpu time    0.0003: real time    0.0003
    --------------------------------------------
      LOOP:  cpu time    0.4674: real time    0.5085

 eigenvalue-minimisations  :  1100
 total energy-change (2. order) : 0.2520889E-01  (-0.6793801E-02)
 number of electron      36.0003790 magnetization
 augmentation part       14.2446604 magnetization

 Broyden mixing:
  rms(total) = 0.15368E+00    rms(broyden)= 0.15368E+00
  rms(prec ) = 0.17915E+00
  weight for this iteration     100.00

 eigenvalues of (default mixing * dielectric matrix)
  average eigenvalue GAMMA=   1.5814
  2.4390  1.1525  1.1525

 Free energy of the ion-electron system (eV)
  ---------------------------------------------------
  alpha Z        PSCENC =       185.24551836
  Ewald energy   TEWEN  =     -2730.71446512
  -Hartree energ DENC   =     -1239.36561347
  -exchange      EXHF   =         0.00000000
  -V(xc)+E(xc)   XCENC  =       143.06554926
  PAW double counting   =      4893.20579102    -5247.34520772
  entropy T*S    EENTRO =         0.00000000
  eigenvalues    EBANDS =       -66.13564277
  atomic energy  EATOM  =      4048.14435094
  Solvation  Ediel_sol  =         0.00000000
  ---------------------------------------------------
  free energy    TOTEN  =       -13.89971948 eV

  energy without entropy =      -13.89971948  energy(sigma->0) =      -13.89971948


--------------------------------------------------------------------------------------------------------




----------------------------------------- Iteration    1(   9)  ---------------------------------------


    POTLOK:  cpu time    0.0018: real time    0.0019
    SETDIJ:  cpu time    0.0017: real time    0.0026
     EDDAV:  cpu time    0.4394: real time    0.4897
 BZINTS: Fermi energy:  4.885552; 36.000000 electrons
         Band energy: -68.544368;  BLOECHL correction:  0.000000
       DOS:  cpu time    0.0013: real time    0.0014
    CHARGE:  cpu time    0.0144: real time    0.0149
    MIXING:  cpu time    0.0006: real time    0.0008
    --------------------------------------------
      LOOP:  cpu time    0.4601: real time    0.5127

 eigenvalue-minimisations  :  1036
 total energy-change (2. order) : 0.7897371E-02  (-0.4070348E-02)
 number of electron      36.0003797 magnetization
 augmentation part       14.2577411 magnetization

 Broyden mixing:
  rms(total) = 0.28381E-01    rms(broyden)= 0.28381E-01
  rms(prec ) = 0.31771E-01
  weight for this iteration     100.00

 eigenvalues of (default mixing * dielectric matrix)
  average eigenvalue GAMMA=   1.2759
  2.4096  1.1498  1.1498  0.3943

 Free energy of the ion-electron system (eV)
  ---------------------------------------------------
  alpha Z        PSCENC =       185.24551836
  Ewald energy   TEWEN  =     -2730.71446512
  -Hartree energ DENC   =     -1237.01912048
  -exchange      EXHF   =         0.00000000
  -V(xc)+E(xc)   XCENC  =       142.93708370
  PAW double counting   =      5072.71183587    -5426.65265712
  entropy T*S    EENTRO =         0.00000000
  eigenvalues    EBANDS =       -68.54436828
  atomic energy  EATOM  =      4048.14435094
  Solvation  Ediel_sol  =         0.00000000
  ---------------------------------------------------
  free energy    TOTEN  =       -13.89182211 eV

  energy without entropy =      -13.89182211  energy(sigma->0) =      -13.89182211


--------------------------------------------------------------------------------------------------------




----------------------------------------- Iteration    1(  10)  ---------------------------------------


    POTLOK:  cpu time    0.0017: real time    0.0019
    SETDIJ:  cpu time    0.0020: real time    0.0025
     EDDAV:  cpu time    0.4122: real time    0.4473
 BZINTS: Fermi energy:  4.882504; 36.000000 electrons
         Band energy: -68.359318;  BLOECHL correction:  0.000000
       DOS:  cpu time    0.0011: real time    0.0020
    CHARGE:  cpu time    0.0151: real time    0.0158
    MIXING:  cpu time    0.0003: real time    0.0003
    --------------------------------------------
      LOOP:  cpu time    0.4332: real time    0.4710

 eigenvalue-minimisations  :  1004
 total energy-change (2. order) : 0.4306304E-04  (-0.1282952E-03)
 number of electron      36.0003797 magnetization
 augmentation part       14.2554227 magnetization

 Broyden mixing:
  rms(total) = 0.27047E-01    rms(broyden)= 0.27047E-01
  rms(prec ) = 0.28290E-01
  weight for this iteration     100.00

 eigenvalues of (default mixing * dielectric matrix)
  average eigenvalue GAMMA=   1.3910
  2.3707  1.1309  1.1309  1.1612  1.1612

 Free energy of the ion-electron system (eV)
  ---------------------------------------------------
  alpha Z        PSCENC =       185.24551836
  Ewald energy   TEWEN  =     -2730.71446512
  -Hartree energ DENC   =     -1237.18548406
  -exchange      EXHF   =         0.00000000
  -V(xc)+E(xc)   XCENC  =       142.93991660
  PAW double counting   =      5060.50404239    -5414.46634043
  entropy T*S    EENTRO =         0.00000000
  eigenvalues    EBANDS =       -68.35931775
  atomic energy  EATOM  =      4048.14435094
  Solvation  Ediel_sol  =         0.00000000
  ---------------------------------------------------
  free energy    TOTEN  =       -13.89177905 eV

  energy without entropy =      -13.89177905  energy(sigma->0) =      -13.89177905


--------------------------------------------------------------------------------------------------------




----------------------------------------- Iteration    1(  11)  ---------------------------------------


    POTLOK:  cpu time    0.0016: real time    0.0017
    SETDIJ:  cpu time    0.0017: real time    0.0024
     EDDAV:  cpu time    0.3779: real time    0.4097
 BZINTS: Fermi energy:  4.884175; 36.000000 electrons
         Band energy: -68.344711;  BLOECHL correction:  0.000000
       DOS:  cpu time    0.0013: real time    0.0014
    CHARGE:  cpu time    0.0164: real time    0.0184
    MIXING:  cpu time    0.0003: real time    0.0003
    --------------------------------------------
      LOOP:  cpu time    0.3999: real time    0.4349

 eigenvalue-minimisations  :   912
 total energy-change (2. order) :-0.7122285E-04  (-0.1313971E-04)
 number of electron      36.0003797 magnetization
 augmentation part       14.2554935 magnetization

 Broyden mixing:
  rms(total) = 0.97910E-02    rms(broyden)= 0.97910E-02
  rms(prec ) = 0.12246E-01
  weight for this iteration     100.00

 eigenvalues of (default mixing * dielectric matrix)
  average eigenvalue GAMMA=   1.5197
  2.2110  2.2110  1.8711  1.0133  1.0133  0.7984

 Free energy of the ion-electron system (eV)
  ---------------------------------------------------
  alpha Z        PSCENC =       185.24551836
  Ewald energy   TEWEN  =     -2730.71446512
  -Hartree energ DENC   =     -1237.25384533
  -exchange      EXHF   =         0.00000000
  -V(xc)+E(xc)   XCENC  =       142.94208796
  PAW double counting   =      5042.96149716    -5396.87228286
  entropy T*S    EENTRO =         0.00000000
  eigenvalues    EBANDS =       -68.34471139
  atomic energy  EATOM  =      4048.14435094
  Solvation  Ediel_sol  =         0.00000000
  ---------------------------------------------------
  free energy    TOTEN  =       -13.89185027 eV

  energy without entropy =      -13.89185027  energy(sigma->0) =      -13.89185027


--------------------------------------------------------------------------------------------------------




----------------------------------------- Iteration    1(  12)  ---------------------------------------


    POTLOK:  cpu time    0.0023: real time    0.0029
    SETDIJ:  cpu time    0.0017: real time    0.0026
     EDDAV:  cpu time    0.4800: real time    0.5273
 BZINTS: Fermi energy:  4.883831; 36.000000 electrons
         Band energy: -68.144798;  BLOECHL correction:  0.000000
       DOS:  cpu time    0.0013: real time    0.0013
    CHARGE:  cpu time    0.0149: real time    0.0159
    MIXING:  cpu time    0.0004: real time    0.0004
    --------------------------------------------
      LOOP:  cpu time    0.5015: real time    0.5519

 eigenvalue-minimisations  :  1174
 total energy-change (2. order) : 0.2846447E-04  (-0.2165512E-04)
 number of electron      36.0003797 magnetization
 augmentation part       14.2533709 magnetization

 Broyden mixing:
  rms(total) = 0.89941E-02    rms(broyden)= 0.89941E-02
  rms(prec ) = 0.90785E-02
  weight for this iteration     100.00

 eigenvalues of (default mixing * dielectric matrix)
  average eigenvalue GAMMA=   1.4956
  2.6420  2.3751  1.3580  0.9537  0.9537  1.0936  1.0936

 Free energy of the ion-electron system (eV)
  ---------------------------------------------------
  alpha Z        PSCENC =       185.24551836
  Ewald energy   TEWEN  =     -2730.71446512
  -Hartree energ DENC   =     -1237.38863172
  -exchange      EXHF   =         0.00000000
  -V(xc)+E(xc)   XCENC  =       142.94447210
  PAW double counting   =      5034.08517474    -5388.06344309
  entropy T*S    EENTRO =         0.00000000
  eigenvalues    EBANDS =       -68.14479803
  atomic energy  EATOM  =      4048.14435094
  Solvation  Ediel_sol  =         0.00000000
  ---------------------------------------------------
  free energy    TOTEN  =       -13.89182181 eV

  energy without entropy =      -13.89182181  energy(sigma->0) =      -13.89182181


--------------------------------------------------------------------------------------------------------




----------------------------------------- Iteration    1(  13)  ---------------------------------------


    POTLOK:  cpu time    0.0017: real time    0.0017
    SETDIJ:  cpu time    0.0021: real time    0.0026
     EDDAV:  cpu time    0.3997: real time    0.4354
 BZINTS: Fermi energy:  4.883193; 36.000000 electrons
         Band energy: -68.135639;  BLOECHL correction:  0.000000
       DOS:  cpu time    0.0013: real time    0.0014
    CHARGE:  cpu time    0.0155: real time    0.0160
    MIXING:  cpu time    0.0004: real time    0.0004
    --------------------------------------------
      LOOP:  cpu time    0.4214: real time    0.4587

 eigenvalue-minimisations  :   968
 total energy-change (2. order) :-0.7633836E-05  (-0.8796644E-05)
 number of electron      36.0003797 magnetization
 augmentation part       14.2528499 magnetization

 Broyden mixing:
  rms(total) = 0.33668E-02    rms(broyden)= 0.33668E-02
  rms(prec ) = 0.36808E-02
  weight for this iteration     100.00

 eigenvalues of (default mixing * dielectric matrix)
  average eigenvalue GAMMA=   1.4289
  2.6558  2.2986  1.3349  1.3349  1.3935  0.9499  0.9499  0.5137

 Free energy of the ion-electron system (eV)
  ---------------------------------------------------
  alpha Z        PSCENC =       185.24551836
  Ewald energy   TEWEN  =     -2730.71446512
  -Hartree energ DENC   =     -1237.37895146
  -exchange      EXHF   =         0.00000000
  -V(xc)+E(xc)   XCENC  =       142.94384831
  PAW double counting   =      5038.29482126    -5392.29131261
  entropy T*S    EENTRO =         0.00000000
  eigenvalues    EBANDS =       -68.13563912
  atomic energy  EATOM  =      4048.14435094
  Solvation  Ediel_sol  =         0.00000000
  ---------------------------------------------------
  free energy    TOTEN  =       -13.89182944 eV

  energy without entropy =      -13.89182944  energy(sigma->0) =      -13.89182944


--------------------------------------------------------------------------------------------------------




----------------------------------------- Iteration    1(  14)  ---------------------------------------


    POTLOK:  cpu time    0.0021: real time    0.0024
    SETDIJ:  cpu time    0.0020: real time    0.0026
     EDDAV:  cpu time    0.4036: real time    0.4444
 BZINTS: Fermi energy:  4.883749; 36.000000 electrons
         Band energy: -68.139027;  BLOECHL correction:  0.000000
       DOS:  cpu time    0.0013: real time    0.0013
    CHARGE:  cpu time    0.0164: real time    0.0183
    MIXING:  cpu time    0.0008: real time    0.0010
    --------------------------------------------
      LOOP:  cpu time    0.4270: real time    0.4713

 eigenvalue-minimisations  :   962
 total energy-change (2. order) : 0.1282830E-05  (-0.5282851E-06)
 number of electron      36.0003797 magnetization
 augmentation part       14.2530487 magnetization

 Broyden mixing:
  rms(total) = 0.14591E-02    rms(broyden)= 0.14591E-02
  rms(prec ) = 0.16386E-02
  weight for this iteration     100.00

 eigenvalues of (default mixing * dielectric matrix)
  average eigenvalue GAMMA=   1.5676
  2.7504  2.7504  2.2697  1.5467  1.0238  1.0238  0.9785  0.8825  0.8825

 Free energy of the ion-electron system (eV)
  ---------------------------------------------------
  alpha Z        PSCENC =       185.24551836
  Ewald energy   TEWEN  =     -2730.71446512
  -Hartree energ DENC   =     -1237.37329747
  -exchange      EXHF   =         0.00000000
  -V(xc)+E(xc)   XCENC  =       142.94442338
  PAW double counting   =      5039.12886592    -5393.12819760
  entropy T*S    EENTRO =         0.00000000
  eigenvalues    EBANDS =       -68.13902658
  atomic energy  EATOM  =      4048.14435094
  Solvation  Ediel_sol  =         0.00000000
  ---------------------------------------------------
  free energy    TOTEN  =       -13.89182816 eV

  energy without entropy =      -13.89182816  energy(sigma->0) =      -13.89182816


--------------------------------------------------------------------------------------------------------




----------------------------------------- Iteration    1(  15)  ---------------------------------------


    POTLOK:  cpu time    0.0018: real time    0.0020
    SETDIJ:  cpu time    0.0021: real time    0.0024
     EDDAV:  cpu time    0.3524: real time    0.3977
 BZINTS: Fermi energy:  4.884320; 36.000000 electrons
         Band energy: -68.126078;  BLOECHL correction:  0.000000
       DOS:  cpu time    0.0013: real time    0.0012
    --------------------------------------------
      LOOP:  cpu time    0.3791: real time    0.4350

 eigenvalue-minimisations  :   808
 total energy-change (2. order) :-0.1603885E-06  (-0.4038008E-06)
 number of electron      36.0003797 magnetization
 augmentation part       14.2530487 magnetization

 Free energy of the ion-electron system (eV)
  ---------------------------------------------------
  alpha Z        PSCENC =       185.24551836
  Ewald energy   TEWEN  =     -2730.71446512
  -Hartree energ DENC   =     -1237.37957533
  -exchange      EXHF   =         0.00000000
  -V(xc)+E(xc)   XCENC  =       142.94531911
  PAW double counting   =      5038.98490117    -5392.99179904
  entropy T*S    EENTRO =         0.00000000
  eigenvalues    EBANDS =       -68.12607842
  atomic energy  EATOM  =      4048.14435094
  Solvation  Ediel_sol  =         0.00000000
  ---------------------------------------------------
  free energy    TOTEN  =       -13.89182832 eV

  energy without entropy =      -13.89182832  energy(sigma->0) =      -13.89182832


--------------------------------------------------------------------------------------------------------




 the core state eigenenergies are
   1-  1s  -9516.5255  2s  -1150.2196  2p   -995.8571  3s   -121.1619  3p    -75.3207

   2-  1s  -9516.5255  2s  -1150.2196  2p   -995.8571  3s   -121.1619  3p    -75.3207

   3-  1s  -2394.1397  2s   -200.5034  2p   -145.2478
   4-  1s  -2394.1397  2s   -200.5034  2p   -145.2478

 E-fermi :   4.8843     XC(G=0): -11.1002     alpha+bet :-10.4148


 k-point     1 :       0.0000    0.0000    0.0000
  band No.  band energies     occupation
      1     -10.4994      2.00000
      2      -8.4772      2.00000
      3      -3.3579      2.00000
      4      -2.9956      2.00000
      5      -2.9944      2.00000
      6      -2.9944      2.00000
      7      -2.4167      2.00000
      8      -2.4167      2.00000
      9      -2.1567      2.00000
     10      -2.1496      2.00000
     11      -2.0039      2.00000
     12      -1.8502      2.00000
     13      -0.9327      2.00000
     14       1.4795      2.00000
     15       1.4795      2.00000
     16       4.8216      2.00000
     17       4.8288      2.00000
     18       4.8288      2.00000
     19       7.3693      0.00000
     20       7.9820      0.00000
     21       8.4865      0.00000
     22      10.7843      0.00000

 k-point     2 :       0.2500    0.0000    0.0000
  band No.  band energies     occupation
      1     -10.2625      2.00000
      2      -8.8539      2.00000
      3      -3.3208      2.00000
      4      -3.0582      2.00000
      5      -2.9337      2.00000
      6      -2.9337      2.00000
      7      -2.5350      2.00000
      8      -2.5350      2.00000
      9      -2.1919      2.00000
     10      -2.1622      2.00000
     11      -2.1283      2.00000
     12      -2.0253      2.00000
     13       0.1163      2.00000
     14       1.8868      2.00000
     15       1.8868      2.00000
     16       3.6899      2.00000
     17       4.1629      2.00000
     18       4.1629      2.00000
     19       7.6996      0.00000
     20       8.9014      0.00000
     21       9.1772      0.00000
     22      10.0336      0.00000

 k-point     3 :       0.5000    0.0000    0.0000
  band No.  band energies     occupation
      1      -9.6243      2.00000
      2      -9.6243      2.00000
      3      -3.2008      2.00000
      4      -3.2008      2.00000
      5      -2.7612      2.00000
      6      -2.7612      2.00000
      7      -2.7612      2.00000
      8      -2.7612      2.00000
      9      -2.2504      2.00000
     10      -2.2504      2.00000
     11      -2.0769      2.00000
     12      -2.0769      2.00000
     13       1.8825      2.00000
     14       1.8825      2.00000
     15       2.9192      2.00000
     16       2.9192      2.00000
     17       2.9192      2.00000
     18       2.9192      2.00000
     19       8.6428      0.00000
     20       8.6428      0.00000
     21       9.8950      0.00000
     22       9.8950      0.00000

 k-point     4 :       0.0000    0.2500    0.0000
  band No.  band energies     occupation
      1     -10.0423      2.00000
      2      -8.5164      2.00000
      3      -3.0661      2.00000
      4      -3.0566      2.00000
      5      -2.9145      2.00000
      6      -2.9005      2.00000
      7      -2.5250      2.00000
      8      -2.3535      2.00000
      9      -2.1837      2.00000
     10      -2.1347      2.00000
     11      -2.0871      2.00000
     12      -1.5686      2.00000
     13      -1.2831      2.00000
     14       0.2538      2.00000
     15       2.1006      2.00000
     16       2.4424      2.00000
     17       3.4463      2.00000
     18       4.5231      2.00000
     19       8.3561      0.00000
     20       9.5281      0.00000
     21      10.7866      0.00000
     22      11.1274      0.00000

 k-point     5 :       0.2500    0.2500    0.0000
  band No.  band energies     occupation
      1      -9.8442      2.00000
      2      -8.7665      2.00000
      3      -3.0485      2.00000
      4      -3.0480      2.00000
      5      -2.8873      2.00000
      6      -2.8858      2.00000
      7      -2.6255      2.00000
      8      -2.5409      2.00000
      9      -2.1557      2.00000
     10      -2.1496      2.00000
     11      -2.0676      2.00000
     12      -1.9699      2.00000
     13      -0.9278      2.00000
     14       1.2424      2.00000
     15       1.3729      2.00000
     16       2.4072      2.00000
     17       4.0907      2.00000
     18       4.0982      2.00000
     19       8.7340      0.00000
     20       8.8158      0.00000
     21      11.1981      0.00000
     22      11.6001      0.00000

 k-point     6 :       0.5000    0.2500    0.0000
  band No.  band energies     occupation
      1      -9.3319      2.00000
      2      -9.3319      2.00000
      3      -3.0380      2.00000
      4      -3.0380      2.00000
      5      -2.7925      2.00000
      6      -2.7925      2.00000
      7      -2.7863      2.00000
      8      -2.7863      2.00000
      9      -2.1676      2.00000
     10      -2.1676      2.00000
     11      -2.0870      2.00000
     12      -2.0870      2.00000
     13      -0.0547      2.00000
     14      -0.0547      2.00000
     15       3.1755      2.00000
     16       3.1755      2.00000
     17       3.1970      2.00000
     18       3.1970      2.00000
     19       9.2792      0.00000
     20       9.2792      0.00000
     21      10.9751      0.00000
     22      10.9751      0.00000

 k-point     7 :       0.0000    0.5000    0.0000
  band No.  band energies     occupation
      1      -9.0571      2.00000
      2      -9.0571      2.00000
      3      -2.8484      2.00000
      4      -2.8484      2.00000
      5      -2.8154      2.00000
      6      -2.8154      2.00000
      7      -2.7330      2.00000
      8      -2.7330      2.00000
      9      -2.1862      2.00000
     10      -2.1862      2.00000
     11      -2.0630      2.00000
     12      -2.0630      2.00000
     13      -0.0802      2.00000
     14      -0.0802      2.00000
     15       1.1005      2.00000
     16       1.1005      2.00000
     17       3.4488      2.00000
     18       3.4488      2.00000
     19       9.8623      0.00000
     20       9.8623      0.00000
     21      11.8858      0.00000
     22      11.8858      0.00000

 k-point     8 :       0.2500    0.5000    0.0000
  band No.  band energies     occupation
      1      -9.0256      2.00000
      2      -9.0256      2.00000
      3      -2.8307      2.00000
      4      -2.8307      2.00000
      5      -2.7761      2.00000
      6      -2.7761      2.00000
      7      -2.7495      2.00000
      8      -2.7495      2.00000
      9      -2.1366      2.00000
     10      -2.1366      2.00000
     11      -2.0638      2.00000
     12      -2.0638      2.00000
     13      -1.1367      2.00000
     14      -1.1367      2.00000
     15       2.4703      2.00000
     16       2.4703      2.00000
     17       3.4779      2.00000
     18       3.4779      2.00000
     19       9.3478      0.00000
     20       9.3478      0.00000
     21      10.9474      0.00000
     22      10.9474      0.00000

 k-point     9 :       0.5000    0.5000    0.0000
  band No.  band energies     occupation
      1      -8.9932      2.00000
      2      -8.9932      2.00000
      3      -2.8163      2.00000
      4      -2.8163      2.00000
      5      -2.8134      2.00000
      6      -2.8134      2.00000
      7      -2.6007      2.00000
      8      -2.6007      2.00000
      9      -2.0972      2.00000
     10      -2.0972      2.00000
     11      -2.0929      2.00000
     12      -2.0929      2.00000
     13      -1.7751      2.00000
     14      -1.7751      2.00000
     15       3.4981      2.00000
     16       3.4981      2.00000
     17       3.5080      2.00000
     18       3.5080      2.00000
     19       8.4373      0.00000
     20       8.4373      0.00000
     21      11.3417      0.00000
     22      11.3418      0.00000

 k-point    10 :       0.0000    0.2500    0.2500
  band No.  band energies     occupation
      1      -9.6227      2.00000
      2      -8.4660      2.00000
      3      -3.1993      2.00000
      4      -2.9302      2.00000
      5      -2.7630      2.00000
      6      -2.7611      2.00000
      7      -2.5156      2.00000
      8      -2.3819      2.00000
      9      -2.2456      2.00000
     10      -2.2177      2.00000
     11      -2.0818      2.00000
     12      -1.4089      2.00000
     13      -1.1874      2.00000
     14       0.5041      2.00000
     15       0.9359      2.00000
     16       1.8912      2.00000
     17       2.9113      2.00000
     18       2.9151      2.00000
     19       8.6370      0.00000
     20       9.8936      0.00000
     21      10.2520      0.00000
     22      11.8740      0.00000

 k-point    11 :       0.2500    0.2500    0.2500
  band No.  band energies     occupation
      1      -9.4610      2.00000
      2      -8.6405      2.00000
      3      -3.1114      2.00000
      4      -2.8919      2.00000
      5      -2.7989      2.00000
      6      -2.7577      2.00000
      7      -2.6794      2.00000
      8      -2.3509      2.00000
      9      -2.2107      2.00000
     10      -2.1809      2.00000
     11      -2.0819      2.00000
     12      -1.9224      2.00000
     13      -0.8507      2.00000
     14       0.4434      2.00000
     15       1.0230      2.00000
     16       2.1645      2.00000
     17       2.2145      2.00000
     18       3.4604      2.00000
     19       9.8685      0.00000
     20       9.8871      0.00000
     21      10.4959      0.00000
     22      11.7021      0.00000

 k-point    12 :       0.5000    0.2500    0.2500
  band No.  band energies     occupation
      1      -9.0577      2.00000
      2      -9.0577      2.00000
      3      -2.8464      2.00000
      4      -2.8464      2.00000
      5      -2.8141      2.00000
      6      -2.8141      2.00000
      7      -2.7344      2.00000
      8      -2.7344      2.00000
      9      -2.1902      2.00000
     10      -2.1902      2.00000
     11      -2.0619      2.00000
     12      -2.0619      2.00000
     13      -0.0780      2.00000
     14      -0.0780      2.00000
     15       1.1086      2.00000
     16       1.1086      2.00000
     17       3.4407      2.00000
     18       3.4407      2.00000
     19       9.8508      0.00000
     20       9.8508      0.00000
     21      11.8895      0.00000
     22      11.8895      0.00000

 k-point    13 :       0.0000    0.5000    0.2500
  band No.  band energies     occupation
      1      -8.7855      2.00000
      2      -8.7855      2.00000
      3      -3.1589      2.00000
      4      -3.1589      2.00000
      5      -2.6313      2.00000
      6      -2.6313      2.00000
      7      -2.5091      2.00000
      8      -2.5091      2.00000
      9      -2.0810      2.00000
     10      -2.0810      2.00000
     11      -2.0362      2.00000
     12      -2.0362      2.00000
     13      -0.2022      2.00000
     14      -0.2022      2.00000
     15       1.2755      2.00000
     16       1.2755      2.00000
     17       1.9302      2.00000
     18       1.9302      2.00000
     19       8.8731      0.00000
     20       8.8731      0.00000
     21       9.9109      0.00000
     22       9.9109      0.00000

 k-point    14 :       0.2500    0.5000    0.2500
  band No.  band energies     occupation
      1      -8.7650      2.00000
      2      -8.7650      2.00000
      3      -3.0448      2.00000
      4      -3.0448      2.00000
      5      -2.6270      2.00000
      6      -2.6270      2.00000
      7      -2.5414      2.00000
      8      -2.5414      2.00000
      9      -2.0714      2.00000
     10      -2.0714      2.00000
     11      -1.9660      2.00000
     12      -1.9660      2.00000
     13      -0.9282      2.00000
     14      -0.9282      2.00000
     15       1.3795      2.00000
     16       1.3795      2.00000
     17       2.3992      2.00000
     18       2.3992      2.00000
     19       8.7248      0.00000
     20       8.7248      0.00000
     21      11.1895      0.00000
     22      11.1895      0.00000

 k-point    15 :       0.5000    0.5000    0.2500
  band No.  band energies     occupation
      1      -8.7443      2.00000
      2      -8.7443      2.00000
      3      -2.8576      2.00000
      4      -2.8576      2.00000
      5      -2.7339      2.00000
      6      -2.7339      2.00000
      7      -2.4110      2.00000
      8      -2.4110      2.00000
      9      -2.1442      2.00000
     10      -2.1442      2.00000
     11      -1.8293      2.00000
     12      -1.8293      2.00000
     13      -1.5787      2.00000
     14      -1.5787      2.00000
     15       1.4973      2.00000
     16       1.4973      2.00000
     17       2.5849      2.00000
     18       2.5849      2.00000
     19      10.1840      0.00000
     20      10.1840      0.00000
     21      10.2631      0.00000
     22      10.2631      0.00000

 k-point    16 :       0.0000    0.5000    0.5000
  band No.  band energies     occupation
      1      -8.4743      2.00000
      2      -8.4743      2.00000
      3      -3.3532      2.00000
      4      -3.3532      2.00000
      5      -2.4187      2.00000
      6      -2.4187      2.00000
      7      -2.4157      2.00000
      8      -2.4157      2.00000
      9      -2.0084      2.00000
     10      -2.0084      2.00000
     11      -1.8473      2.00000
     12      -1.8473      2.00000
     13      -0.9218      2.00000
     14      -0.9218      2.00000
     15       1.4703      2.00000
     16       1.4703      2.00000
     17       1.4714      2.00000
     18       1.4714      2.00000
     19       7.3610      0.00000
     20       7.3610      0.00000
     21       8.4729      0.00000
     22       8.4729      0.00000

 k-point    17 :       0.2500    0.5000    0.5000
  band No.  band energies     occupation
      1      -8.4695      2.00000
      2      -8.4695      2.00000
      3      -3.1750      2.00000
      4      -3.1750      2.00000
      5      -2.4765      2.00000
      6      -2.4765      2.00000
      7      -2.4110      2.00000
      8      -2.4110      2.00000
      9      -2.0709      2.00000
     10      -2.0709      2.00000
     11      -1.6441      2.00000
     12      -1.6441      2.00000
     13      -1.0410      2.00000
     14      -1.0410      2.00000
     15       0.9827      2.00000
     16       0.9827      2.00000
     17       1.1761      2.00000
     18       1.1761      2.00000
     19       8.4909      0.00000
     20       8.4909      0.00000
     21       9.6014      0.00000
     22       9.6014      0.00000

 k-point    18 :       0.5000    0.5000    0.5000
  band No.  band energies     occupation
      1      -8.4648      2.00000
      2      -8.4648      2.00000
      3      -2.9265      2.00000
      4      -2.9265      2.00000
      5      -2.5178      2.00000
      6      -2.5178      2.00000
      7      -2.3878      2.00000
      8      -2.3878      2.00000
      9      -2.2157      2.00000
     10      -2.2157      2.00000
     11      -1.4085      2.00000
     12      -1.4085      2.00000
     13      -1.1821      2.00000
     14      -1.1821      2.00000
     15       0.5045      2.00000
     16       0.5045      2.00000
     17       0.9364      2.00000
     18       0.9364      2.00000
     19      10.2413      0.00000
     20      10.2413      0.00000
     21      11.8631      0.00000
     22      11.8631      0.00000


--------------------------------------------------------------------------------------------------------


 soft charge-density along one line, spin component           1
         0         1         2         3         4         5         6         7         8         9
 total charge-density along one line

 pseudopotential strength for first ion, spin component:           1
 -8.399   0.000   0.000  -0.000  -0.000  -8.843   0.000   0.000
  0.000  -8.389  -0.000  -0.000   0.000   0.000  -8.833  -0.000
  0.000  -0.000  -8.398   0.000  -0.002   0.000  -0.000  -8.842
 -0.000  -0.000   0.000  -8.399   0.000  -0.000  -0.000   0.000
 -0.000   0.000  -0.002   0.000  -8.395  -0.000   0.000  -0.002
 -8.843   0.000   0.000  -0.000  -0.000  -9.207   0.000   0.000
  0.000  -8.833  -0.000  -0.000   0.000   0.000  -9.198  -0.000
  0.000  -0.000  -8.842   0.000  -0.002   0.000  -0.000  -9.206
 -0.000  -0.000   0.000  -8.843   0.000  -0.000  -0.000   0.000
 -0.000   0.000  -0.002   0.000  -8.839  -0.000   0.000  -0.002
 -0.000  -0.000   0.000   0.000  -0.000  -0.000  -0.000   0.000
 -0.000  -0.000   0.000   0.000  -0.000  -0.000  -0.000   0.000
 -0.005  -0.000  -0.000   0.000  -0.000  -0.004  -0.000  -0.000
  0.000   0.000  -0.000   0.005  -0.000   0.000   0.000  -0.000
  0.000   0.000   0.004  -0.000   0.003   0.000   0.000   0.003
 -0.007   0.000  -0.000   0.000  -0.000  -0.005   0.000  -0.000
  0.000   0.000  -0.000   0.007  -0.000   0.000   0.000  -0.000
  0.000   0.000   0.006  -0.000   0.003   0.000   0.000   0.005
 total augmentation occupancy for first ion, spin component:           1
  5.531  -0.000  -0.000   0.000   0.000  -3.677  -0.000  -0.000   0.000  -0.000   0.000   0.000  -1.128   0.000   0.000   0.176
  0.000   2.974  -0.000   0.000  -0.000   0.000  -1.085   0.000  -0.000   0.000  -0.000   0.000   0.000   0.000   0.000  -0.000
 -0.000   0.000   4.844  -0.000   1.099   0.000   0.000  -2.986   0.000  -1.115  -0.001  -0.002  -0.000  -0.000   0.973  -0.000
  0.000   0.000  -0.000   5.531   0.000   0.000   0.000  -0.000  -3.677  -0.000   0.000   0.000   0.000   1.128   0.000   0.000
  0.000   0.000   1.099   0.000   3.575  -0.000   0.000  -1.115  -0.000  -1.699   0.002   0.003   0.000   0.000   0.562  -0.000
 -3.677   0.000   0.000   0.000   0.000   3.814   0.000   0.000  -0.000   0.000   0.000  -0.000   1.112   0.000   0.000  -0.192
  0.000  -1.085   0.000  -0.000   0.000  -0.000   1.189  -0.000   0.000   0.000   0.000  -0.000   0.000   0.000   0.000  -0.000
 -0.000   0.000  -2.986   0.000  -1.115   0.000  -0.000   3.119   0.000   1.129   0.001   0.001  -0.000   0.000  -0.959   0.000
  0.000   0.000   0.000  -3.677   0.000   0.000   0.000   0.000   3.814   0.000   0.000  -0.000   0.000  -1.112   0.000   0.000
  0.000   0.000  -1.115   0.000  -1.699   0.000   0.000   1.129  -0.000   1.814  -0.002  -0.002   0.000   0.000  -0.553  -0.000
  0.000  -0.000  -0.001   0.000   0.002   0.000   0.000   0.001   0.000  -0.002   3.488  -0.953   0.000   0.000   0.000   0.000
  0.000   0.000  -0.002   0.000   0.003  -0.000  -0.000   0.001   0.000  -0.002  -0.953   0.299   0.000   0.000  -0.000  -0.000
 -1.128   0.000   0.000  -0.000   0.000   1.112   0.000  -0.000  -0.000   0.000   0.000   0.000   0.588   0.000  -0.000  -0.106
  0.000  -0.000   0.000   1.128   0.000  -0.000   0.000   0.000  -1.112  -0.000   0.000   0.000   0.000   0.588   0.000   0.000
 -0.000   0.000   0.973  -0.000   0.562   0.000   0.000  -0.959  -0.000  -0.553   0.000   0.000   0.000   0.000   0.584   0.000
  0.176   0.000  -0.000   0.000   0.000  -0.192   0.000   0.000   0.000   0.000   0.000  -0.000  -0.106   0.000   0.000   0.024
  0.000   0.000   0.000  -0.176   0.000   0.000   0.000   0.000   0.192   0.000   0.000  -0.000   0.000  -0.106  -0.000   0.000
 -0.000   0.000  -0.153  -0.000  -0.088   0.000   0.000   0.167   0.000   0.096   0.000   0.000   0.000  -0.000  -0.106  -0.000


------------------------ aborting loop because EDIFF is reached ----------------------------------------





 total charge

# of ion     s       p       d       tot
----------------------------------------
  1        0.617   0.758   9.847  11.222
  2        0.617   0.758   9.847  11.222
  3        1.303   2.565   0.000   3.868
  4        1.303   2.565   0.000   3.868
------------------------------------------------
tot        3.841   6.646  19.694  30.180

    CHARGE:  cpu time    0.0189: real time    0.0229
    FORLOC:  cpu time    0.0002: real time    0.0002
    FORNL :  cpu time    0.0772: real time    0.0874
    STRESS:  cpu time    0.2323: real time    0.2599
    FORCOR:  cpu time    0.0018: real time    0.0020
    FORHAR:  cpu time    0.0004: real time    0.0004
    MIXING:  cpu time    0.0004: real time    0.0004
    OFIELD:  cpu time    0.0000: real time    0.0000

  FORCE on cell =-STRESS in cart. coord.  units (eV):
  Direction    XX          YY          ZZ          XY          YZ          ZX
  --------------------------------------------------------------------------------------
  Alpha Z   185.24552   185.24552   185.24552
  Ewald    -909.46885  -910.62384  -910.62384    -0.00000     0.00000     0.00000
  Hartree   412.71267   412.33317   412.33315    -0.00000    -0.00000    -0.00000
  E(xc)    -186.38730  -186.39024  -186.39024    -0.00000    -0.00000     0.00000
  Local      62.13134    63.15093    63.15093     0.00000     0.00000     0.00000
  n-local    86.37743    83.82425    89.41533    -0.60502     0.07689     0.19164
  augment    47.09298    47.08451    47.08451     0.00000     0.00000    -0.00000
  Kinetic   314.02400   309.18923   320.09765    -0.32012    -0.97480     1.18741
  Fock        0.00000     0.00000     0.00000     0.00000     0.00000     0.00000
  -------------------------------------------------------------------------------------
  Total      11.72779    12.06327    12.06327     0.00000     0.00000     0.00000
  in kB     307.81437   316.61965   316.61965     0.00000     0.00000     0.00000
  external pressure =      313.68 kB  Pullay stress =        0.00 kB


 VOLUME and BASIS-vectors are now :
 -----------------------------------------------------------------------------
  energy-cutoff  :      500.00
  volume of cell :       61.04
      direct lattice vectors                 reciprocal lattice vectors
     4.964631010  0.000000000  0.000000000     0.201424839  0.000000000  0.000000000
     0.000000000  3.506512436  0.000000000     0.000000000  0.285183646  0.000000000
     0.000000000  0.000000000  3.506512436     0.000000000  0.000000000  0.285183646

  length of vectors
     4.964631010  3.506512436  3.506512436     0.201424839  0.285183646  0.285183646


 FORCES acting on ions
    electron-ion (+dipol)            ewald-force                    non-local-force                 convergence-correction
 -----------------------------------------------------------------------------------------------
   0.551E-04 -.452E-14 -.260E-13   -.284E-13 -.641E-14 0.902E-15   0.000E+00 0.173E-17 -.173E-17   -.569E-13 -.148E-13 0.820E-13
   0.551E-04 -.205E-11 -.866E-12   -.284E-13 -.490E-14 0.368E-14   0.000E+00 0.173E-17 -.347E-17   -.908E-13 0.152E-13 -.213E-13
   0.207E-05 0.353E-14 0.358E-12   0.256E-13 0.665E-14 -.460E-14   0.139E-16 0.000E+00 0.104E-16   0.876E-13 -.145E-14 0.297E-14
   0.207E-05 0.649E-14 0.123E-12   0.313E-13 0.475E-14 -.307E-14   0.139E-16 0.000E+00 -.347E-17   0.156E-12 0.101E-14 0.359E-15
 -----------------------------------------------------------------------------------------------
   0.114E-03 -.204E-11 -.411E-12   0.399E-16 0.847E-16 -.309E-14   0.278E-16 0.347E-17 0.173E-17   0.958E-13 -.378E-16 0.640E-13


 POSITION                                       TOTAL-FORCE (eV/Angst)
 -----------------------------------------------------------------------------------
      0.00000      0.00000      0.00000         0.000000     -0.000000      0.000000
      2.48232      1.75326      1.75326         0.000000     -0.000000     -0.000000
      1.24116      1.75326      0.00000        -0.000000      0.000000     -0.000000
      3.72347      0.00000      1.75326        -0.000000      0.000000     -0.000000
 -----------------------------------------------------------------------------------
    total drift:                                0.000114     -0.000000     -0.000000


--------------------------------------------------------------------------------------------------------



  FREE ENERGIE OF THE ION-ELECTRON SYSTEM (eV)
  ---------------------------------------------------
  free  energy   TOTEN  =       -13.89182832 eV

  energy  without entropy=      -13.89182832  energy(sigma->0) =      -13.89182832



--------------------------------------------------------------------------------------------------------


    POTLOK:  cpu time    0.0037: real time    0.0044


--------------------------------------------------------------------------------------------------------


 writing wavefunctions
     LOOP+:  cpu time    6.7533: real time    7.5389
    4ORBIT:  cpu time    0.0000: real time    0.0000



 total charge

# of ion     s       p       d       tot
----------------------------------------
  1        0.617   0.758   9.847  11.222
  2        0.617   0.758   9.847  11.222
  3        1.303   2.565   0.000   3.868
  4        1.303   2.565   0.000   3.868
------------------------------------------------
tot        3.841   6.646  19.694  30.180

 BZINTS: Fermi energy:  4.884320; 36.000000 electrons
         Band energy: -68.126078;  BLOECHL correction:  0.000000

 total amount of memory used by VASP on root node    32091. kBytes
========================================================================

   base      :      30000. kBytes
   nonlr-proj:        352. kBytes
   fftplans  :        159. kBytes
   grid      :        210. kBytes
   one-center:         15. kBytes
   wavefun   :       1355. kBytes



 General timing and accounting informations for this job:
 ========================================================

                  Total CPU time used (sec):        8.546
                            User time (sec):        7.478
                          System time (sec):        1.067
                         Elapsed time (sec):        9.551

                   Maximum memory used (kb):    27553792.
                   Average memory used (kb):           0.

                          Minor page faults:         6630
                          Major page faults:          506
                 Voluntary context switches:           20
