Name
   5.43000000000000
     0.500000    0.500000    0.000000
     0.000000    0.500000    0.500000
     0.500000    0.000000    0.500000
   Si
     2
Direct
  0.000000  0.000000  0.000000
  0.250000  0.250000  0.250000

   56   56   56
 -.76010173913E+01 -.70120618451E+01 -.53136422586E+01 -.26999186154E+01 0.54060303633E+00
 0.40703207392E+01 0.75522847317E+01 0.10694293616E+02 0.13279514693E+02 0.15180457660E+02
 0.16357970149E+02 0.16849820764E+02 0.16753663872E+02 0.16207644826E+02 0.15370202654E+02
 0.14396992047E+02 0.13381480127E+02 0.12369352999E+02 0.11399173687E+02 0.10500539503E+02
 0.96925918130E+01 0.89845869372E+01 0.83781974853E+01 0.78707147346E+01 0.74581706439E+01
 0.71375635538E+01 0.69077695798E+01 0.67692237240E+01 0.67228881124E+01 0.67692237240E+01
 0.69077695798E+01 0.71375635538E+01 0.74581706439E+01 0.78707147346E+01 0.83781974853E+01
 0.89845869372E+01 0.96925918130E+01 0.10500539503E+02 0.11399173687E+02 0.12369352999E+02
 0.13381480127E+02 0.14396992047E+02 0.15370202654E+02 0.16207644826E+02 0.16753663872E+02
 0.16849820764E+02 0.16357970149E+02 0.15180457660E+02 0.13279514693E+02 0.10694293616E+02
 0.75522847317E+01 0.40703207392E+01 0.54060303633E+00 -.26999186154E+01 -.53136422586E+01
 -.70120618451E+01 -.70120618451E+01 -.58113655593E+01 -.35530360186E+01 -.49851250840E+00
 0.30162785100E+01 0.66342000567E+01 0.10027924312E+02 0.12938673825E+02 0.15197308433E+02
 0.16728031880E+02 0.17539143588E+02 0.17706502020E+02 0.17354109497E+02 0.16634088005E+02
 0.15706828349E+02 0.14702541470E+02 0.13678676022E+02 0.12676429253E+02 0.11729831061E+02
 0.10863370598E+02 0.10091446762E+02 0.94197651441E+01 0.88481294388E+01 0.83736935101E+01
 0.79937078462E+01 0.77070721920E+01 0.75144940862E+01 0.74175835055E+01 0.74175835055E+01
 0.75144940862E+01 0.77070721920E+01 0.79937078462E+01 0.83736935101E+01 0.88481294388E+01
 0.94197651441E+01 0.10091446762E+02 0.10863370598E+02 0.11729831061E+02 0.12676429253E+02
 0.13678676022E+02 0.14702541470E+02 0.15706828349E+02 0.16634088005E+02 0.17354109497E+02
 0.17706502020E+02 0.17539143588E+02 0.16728031880E+02 0.15197308433E+02 0.12938673825E+02
 0.10027924312E+02 0.66342000567E+01 0.30162785100E+01 -.49851250840E+00 -.35530360186E+01
 -.58113655593E+01 -.70120618451E+01 -.53136422586E+01 -.35530360186E+01 -.85723449188E+00
 0.24609514619E+01 0.60424012591E+01 0.95375028035E+01 0.12652576392E+02 0.15179023228E+02
 0.17003375820E+02 0.18101739654E+02 0.18524639033E+02 0.18377771484E+02 0.17801983050E+02
 0.16953694291E+02 0.15981479638E+02 0.14967396410E+02 0.13954012872E+02 0.12978065843E+02
 0.12068218486E+02 0.11243585957E+02 0.10514138567E+02 0.98828112187E+01 0.93485762403E+01
 0.89094865655E+01 0.85647982870E+01 0.83156826977E+01 0.81646000443E+01 0.81139174548E+01
 0.81646000443E+01 0.83156826977E+01 0.85647982870E+01 0.89094865655E+01 0.93485762403E+01
 0.98828112187E+01 0.10514138567E+02 0.11243585957E+02 0.12068218486E+02 0.12978065843E+02
 0.13954012872E+02 0.14967396410E+02 0.15981479638E+02 0.16953694291E+02 0.17801983050E+02
 0.18377771484E+02 0.18524639033E+02 0.18101739654E+02 0.17003375820E+02 0.15179023228E+02
 0.12652576392E+02 0.95375028035E+01 0.60424012591E+01 0.24609514619E+01 -.85723449188E+00
 -.35530360186E+01 -.53136422586E+01 -.59257467233E+01 -.26999186154E+01 -.49851250840E+00
 0.24609514619E+01 0.58381940698E+01 0.92783075165E+01 0.12464045506E+02 0.15152990525E+02
 0.17195195671E+02 0.18533022025E+02 0.19188762082E+02 0.19246256064E+02 0.18830940488E+02
 0.18090373573E+02 0.17175314759E+02 0.16193691317E+02 0.15192289179E+02 0.14208891979E+02
 0.13274872241E+02 0.12413150941E+02 0.11637710540E+02 0.10954891722E+02 0.10366028596E+02
 0.98705325376E+01 0.94684337471E+01 0.91616433546E+01 0.89537195803E+01 0.88485163209E+01
 0.88485163209E+01 0.89537195803E+01 0.91616433546E+01 0.94684337471E+01 0.98705325376E+01
 0.10366028596E+02 0.10954891722E+02 0.11637710540E+02 0.12413150941E+02 0.13274872241E+02
 0.14208891979E+02 0.15192289179E+02 0.16193691317E+02 0.17175314759E+02 0.18090373573E+02
 0.18830940488E+02 0.19246256064E+02 0.19188762082E+02 0.18533022025E+02 0.17195195671E+02
 0.15152990525E+02 0.12464045506E+02 0.92783075165E+01 0.58381940698E+01 0.24609514619E+01
 -.49851250840E+00 -.26999186154E+01 -.38747276756E+01 -.38747276756E+01 0.54060303633E+00
 0.30162785100E+01 0.60424012591E+01 0.92783075165E+01 0.12398433796E+02 0.15136112096E+02
 0.17309151443E+02 0.18826510804E+02 0.19680351137E+02 0.19929706447E+02 0.19681103848E+02
 0.19069186724E+02 0.18238409586E+02 0.17312549621E+02 0.16347569379E+02 0.15380956244E+02
 0.14445302214E+02 0.13566112010E+02 0.12760682323E+02 0.12038616541E+02 0.11403870048E+02
 0.10857645051E+02 0.10401159025E+02 0.10037381638E+02 0.97712489364E+01 0.96084739171E+01
 0.95536329006E+01 0.96084739171E+01 0.97712489364E+01 0.10037381638E+02 0.10401159025E+02
 0.10857645051E+02 0.11403870048E+02 0.12038616541E+02 0.12760682323E+02 0.13566112010E+02
 0.14445302214E+02 0.15380956244E+02 0.16347569379E+02 0.17312549621E+02 0.18238409586E+02
 0.19069186724E+02 0.19681103848E+02 0.19929706447E+02 0.19680351137E+02 0.18826510804E+02
 0.17309151443E+02 0.15136112096E+02 0.12398433796E+02 0.92783075165E+01 0.60424012591E+01
 0.30162785100E+01 0.54060303633E+00 -.10837966699E+01 -.16498740847E+01 -.10837966699E+01
 0.40703207392E+01 0.66342000567E+01 0.95375028035E+01 0.12464045506E+02 0.15136112096E+02
 0.17347050430E+02 0.18975439113E+02 0.19983055774E+02 0.20402085587E+02 0.20317265558E+02
 0.19846940269E+02 0.19124903610E+02 0.18278248526E+02 0.17374456171E+02 0.16450049873E+02
 0.15537538874E+02 0.14663685119E+02 0.13848075588E+02 0.13103022072E+02 0.12434994155E+02
 0.11847170573E+02 0.11342249012E+02 0.10924538030E+02 0.10600616975E+02 0.10378407965E+02
 0.10265141557E+02 0.10265141557E+02 0.10378407965E+02 0.10600616975E+02 0.10924538030E+02
 0.11342249012E+02 0.11847170573E+02 0.12434994155E+02 0.13103022072E+02 0.13848075588E+02
 0.14663685119E+02 0.15537538874E+02 0.16450049873E+02 0.17374456171E+02 0.18278248526E+02
 0.19124903610E+02 0.19846940269E+02 0.20317265558E+02 0.20402085587E+02 0.19983055774E+02
 0.18975439113E+02 0.17347050430E+02 0.15136112096E+02 0.12464045506E+02 0.95375028035E+01
 0.66342000567E+01 0.40703207392E+01 0.21528765258E+01 0.11263270961E+01 0.11263270961E+01
 0.21528765258E+01 0.75522847317E+01 0.10027924312E+02 0.12652576392E+02 0.15152990525E+02
 0.17309151443E+02 0.18975439113E+02 0.20085351463E+02 0.20643649342E+02 0.20711268240E+02
 0.20387525691E+02 0.19792331989E+02 0.19047556734E+02 0.18228809203E+02 0.17371868300E+02
 0.16508152238E+02 0.15664430837E+02 0.14861393612E+02 0.14113176711E+02 0.13428277000E+02
 0.12811704787E+02 0.12267697747E+02 0.11802040770E+02 0.11423128590E+02 0.11141360848E+02
 0.10967109583E+02 0.10908076593E+02 0.10967109583E+02 0.11141360848E+02 0.11423128590E+02
 0.11802040770E+02 0.12267697747E+02 0.12811704787E+02 0.13428277000E+02 0.14113176711E+02
 0.14861393612E+02 0.15664430837E+02 0.16508152238E+02 0.17371868300E+02 0.18228809203E+02
 0.19047556734E+02 0.19792331989E+02 0.20387525691E+02 0.20711268240E+02 0.20643649342E+02
 0.20085351463E+02 0.18975439113E+02 0.17309151443E+02 0.15152990525E+02 0.12652576392E+02
 0.10027924312E+02 0.75522847317E+01 0.55147957416E+01 0.41727735723E+01 0.37042203285E+01
 0.41727735723E+01 0.55147957416E+01 0.10694293616E+02 0.12938673825E+02 0.15179023228E+02
 0.17195195671E+02 0.18826510804E+02 0.19983055774E+02 0.20643649342E+02 0.20844737181E+02
 0.20664735239E+02 0.20207136538E+02 0.19583411510E+02 0.18871139688E+02 0.18105210818E+02
 0.17315229291E+02 0.16526914448E+02 0.15760867311E+02 0.15031967187E+02 0.14349931289E+02
 0.13721106129E+02 0.13151018903E+02 0.12646824785E+02 0.12218715682E+02 0.11879671252E+02
 0.11643538614E+02 0.11522083779E+02 0.11522083779E+02 0.11643538614E+02 0.11879671252E+02
 0.12218715682E+02 0.12646824785E+02 0.13151018903E+02 0.13721106129E+02 0.14349931289E+02
 0.15031967187E+02 0.15760867311E+02 0.16526914448E+02 0.17315229291E+02 0.18105210818E+02
 0.18871139688E+02 0.19583411510E+02 0.20207136538E+02 0.20664735239E+02 0.20844737181E+02
 0.20643649342E+02 0.19983055774E+02 0.18826510804E+02 0.17195195671E+02 0.15179023228E+02
 0.12938673825E+02 0.10694293616E+02 0.86990803798E+01 0.72004220161E+01 0.63960917557E+01
 0.63960917557E+01 0.72004220161E+01 0.86990803798E+01 0.13279514693E+02 0.15197308433E+02
 0.17003375820E+02 0.18533022025E+02 0.19680351137E+02 0.20402085587E+02 0.20711268240E+02
 0.20664735239E+02 0.20347866933E+02 0.19858568022E+02 0.19270072418E+02 0.18615327684E+02
 0.17921600578E+02 0.17212728100E+02 0.16508152238E+02 0.15822366671E+02 0.15165299690E+02
 0.14543841530E+02 0.13964234061E+02 0.13434589818E+02 0.12966601843E+02 0.12575672441E+02
 0.12279206532E+02 0.12093495930E+02 0.12030183029E+02 0.12093495930E+02 0.12279206532E+02
 0.12575672441E+02 0.12966601843E+02 0.13434589818E+02 0.13964234061E+02 0.14543841530E+02
 0.15165299690E+02 0.15822366671E+02 0.16508152238E+02 0.17212728100E+02 0.17921600578E+02
 0.18615327684E+02 0.19270072418E+02 0.19858568022E+02 0.20347866933E+02 0.20664735239E+02
 0.20711268240E+02 0.20402085587E+02 0.19680351137E+02 0.18533022025E+02 0.17003375820E+02
 0.15197308433E+02 0.13279514693E+02 0.11456878107E+02 0.99494665093E+01 0.89536589552E+01
 0.86054999622E+01 0.89536589552E+01 0.99494665093E+01 0.11456878107E+02 0.15180457660E+02
 0.16728031880E+02 0.18101739654E+02 0.19188762082E+02 0.19929706447E+02 0.20317265558E+02
 0.20387525691E+02 0.20207136538E+02 0.19858568022E+02 0.19405380287E+02 0.18877015363E+02
 0.18297975330E+02 0.17689587697E+02 0.17069257264E+02 0.16450049873E+02 0.15841039983E+02
 0.15248687307E+02 0.14679108906E+02 0.14140656320E+02 0.13645904810E+02 0.13212186231E+02
 0.12860197126E+02 0.12610782081E+02 0.12481120817E+02 0.12481120817E+02 0.12610782081E+02
 0.12860197126E+02 0.13212186231E+02 0.13645904810E+02 0.14140656320E+02 0.14679108906E+02
 0.15248687307E+02 0.15841039983E+02 0.16450049873E+02 0.17069257264E+02 0.17689587697E+02
 0.18297975330E+02 0.18877015363E+02 0.19405380287E+02 0.19858568022E+02 0.20207136538E+02
 0.20387525691E+02 0.20317265558E+02 0.19929706447E+02 0.19188762082E+02 0.18101739654E+02
 0.16728031880E+02 0.15180457660E+02 0.13616475088E+02 0.12218372833E+02 0.11164646718E+02
 0.10598074943E+02 0.10598074943E+02 0.11164646718E+02 0.12218372833E+02 0.13616475088E+02
 0.16357970149E+02 0.17539143588E+02 0.18524639033E+02 0.19246256064E+02 0.19681103848E+02
 0.19846940269E+02 0.19792331989E+02 0.19583411510E+02 0.19270072418E+02 0.18877015363E+02
 0.18425588198E+02 0.17934146391E+02 0.17417398586E+02 0.16886125287E+02 0.16347569379E+02
 0.15806753538E+02 0.15268688920E+02 0.14741018927E+02 0.14236283608E+02 0.13772795903E+02
 0.13372852903E+02 0.13061555584E+02 0.12863054067E+02 0.12794772089E+02 0.12863054067E+02
 0.13061555584E+02 0.13372852903E+02 0.13772795903E+02 0.14236283608E+02 0.14741018927E+02
 0.15268688920E+02 0.15806753538E+02 0.16347569379E+02 0.16886125287E+02 0.17417398586E+02
 0.17934146391E+02 0.18425588198E+02 0.18877015363E+02 0.19270072418E+02 0.19583411510E+02
 0.19792331989E+02 0.19846940269E+02 0.19681103848E+02 0.19246256064E+02 0.18524639033E+02
 0.17539143588E+02 0.16357970149E+02 0.15091606008E+02 0.13880680280E+02 0.12875388528E+02
 0.12209846262E+02 0.11976928079E+02 0.12209846262E+02 0.12875388528E+02 0.13880680280E+02
 0.15091606008E+02 0.16849820764E+02 0.17706502020E+02 0.18377771484E+02 0.18830940488E+02
 0.19069186724E+02 0.19124903610E+02 0.19047556734E+02 0.18871139688E+02 0.18615327684E+02
 0.18297975330E+02 0.17934146391E+02 0.17535416113E+02 0.17109664259E+02 0.16661524315E+02
 0.16193691317E+02 0.15709103978E+02 0.15213660225E+02 0.14718729088E+02 0.14241043023E+02
 0.13803107419E+02 0.13434534478E+02 0.13166572037E+02 0.13025219551E+02 0.13025219551E+02
 0.13166572037E+02 0.13434534478E+02 0.13803107419E+02 0.14241043023E+02 0.14718729088E+02
 0.15213660225E+02 0.15709103978E+02 0.16193691317E+02 0.16661524315E+02 0.17109664259E+02
 0.17535416113E+02 0.17934146391E+02 0.18297975330E+02 0.18615327684E+02 0.18871139688E+02
 0.19047556734E+02 0.19124903610E+02 0.19069186724E+02 0.18830940488E+02 0.18377771484E+02
 0.17706502020E+02 0.16849820764E+02 0.15877288479E+02 0.14889132250E+02 0.14002661225E+02
 0.13333116472E+02 0.12972709583E+02 0.12972709583E+02 0.13333116472E+02 0.14002661225E+02
 0.14889132250E+02 0.15877288479E+02 0.16753663872E+02 0.17354109497E+02 0.17801983050E+02
 0.18090373573E+02 0.18238409586E+02 0.18278248526E+02 0.18228809203E+02 0.18105210818E+02
 0.17921600578E+02 0.17689587697E+02 0.17417398586E+02 0.17109664259E+02 0.16767901184E+02
 0.16391818165E+02 0.15981479638E+02 0.15540076534E+02 0.15076316803E+02 0.14602955855E+02
 0.14141892095E+02 0.13725693029E+02 0.13391821454E+02 0.13175019151E+02 0.13099805739E+02
 0.13175019151E+02 0.13391821454E+02 0.13725693029E+02 0.14141892095E+02 0.14602955855E+02
 0.15076316803E+02 0.15540076534E+02 0.15981479638E+02 0.16391818165E+02 0.16767901184E+02
 0.17109664259E+02 0.17417398586E+02 0.17689587697E+02 0.17921600578E+02 0.18105210818E+02
 0.18228809203E+02 0.18278248526E+02 0.18238409586E+02 0.18090373573E+02 0.17801983050E+02
 0.17354109497E+02 0.16753663872E+02 0.16037278964E+02 0.15269490537E+02 0.14534803313E+02
 0.13924445581E+02 0.13520177767E+02 0.13378666944E+02 0.13520177767E+02 0.13924445581E+02
 0.14534803313E+02 0.15269490537E+02 0.16037278964E+02 0.16207644826E+02 0.16634088005E+02
 0.16953694291E+02 0.17175314759E+02 0.17312549621E+02 0.17374456171E+02 0.17371868300E+02
 0.17315229291E+02 0.17212728100E+02 0.17069257264E+02 0.16886125287E+02 0.16661524315E+02
 0.16391818165E+02 0.16073670105E+02 0.15706828349E+02 0.15296079619E+02 0.14848995658E+02
 0.14384853619E+02 0.13936843627E+02 0.13546764876E+02 0.13257153212E+02 0.13102642288E+02
 0.13102642288E+02 0.13257153212E+02 0.13546764876E+02 0.13936843627E+02 0.14384853619E+02
 0.14848995658E+02 0.15296079619E+02 0.15706828349E+02 0.16073670105E+02 0.16391818165E+02
 0.16661524315E+02 0.16886125287E+02 0.17069257264E+02 0.17212728100E+02 0.17315229291E+02
 0.17371868300E+02 0.17374456171E+02 0.17312549621E+02 0.17175314759E+02 0.16953694291E+02
 0.16634088005E+02 0.16207644826E+02 0.15686869996E+02 0.15107337729E+02 0.14524104194E+02
 0.14003428590E+02 0.13611175684E+02 0.13400302192E+02 0.13400302192E+02 0.13611175684E+02
 0.14003428590E+02 0.14524104194E+02 0.15107337729E+02 0.15686869996E+02 0.15370202654E+02
 0.15706828349E+02 0.15981479638E+02 0.16193691317E+02 0.16347569379E+02 0.16450049873E+02
 0.16508152238E+02 0.16526914448E+02 0.16508152238E+02 0.16450049873E+02 0.16347569379E+02
 0.16193691317E+02 0.15981479638E+02 0.15706828349E+02 0.15370202654E+02 0.14973369740E+02
 0.14530624885E+02 0.14072964096E+02 0.13643774437E+02 0.13291271650E+02 0.13059254640E+02
 0.12978266336E+02 0.13059254640E+02 0.13291271650E+02 0.13643774437E+02 0.14072964096E+02
 0.14530624885E+02 0.14973369740E+02 0.15370202654E+02 0.15706828349E+02 0.15981479638E+02
 0.16193691317E+02 0.16347569379E+02 0.16450049873E+02 0.16508152238E+02 0.16526914448E+02
 0.16508152238E+02 0.16450049873E+02 0.16347569379E+02 0.16193691317E+02 0.15981479638E+02
 0.15706828349E+02 0.15370202654E+02 0.14973369740E+02 0.14530624885E+02 0.14072964096E+02
 0.13643774437E+02 0.13291271650E+02 0.13059254640E+02 0.12978266336E+02 0.13059254640E+02
 0.13291271650E+02 0.13643774437E+02 0.14072964096E+02 0.14530624885E+02 0.14973369740E+02
 0.14396992047E+02 0.14702541470E+02 0.14967396410E+02 0.15192289179E+02 0.15380956244E+02
 0.15537538874E+02 0.15664430837E+02 0.15760867311E+02 0.15822366671E+02 0.15841039983E+02
 0.15806753538E+02 0.15709103978E+02 0.15540076534E+02 0.15296079619E+02 0.14973369740E+02
 0.14579172250E+02 0.14139367548E+02 0.13695623984E+02 0.13298720898E+02 0.12999345910E+02
 0.12838296665E+02 0.12838296665E+02 0.12999345910E+02 0.13298720898E+02 0.13695623984E+02
 0.14139367548E+02 0.14579172250E+02 0.14973369740E+02 0.15296079619E+02 0.15540076534E+02
 0.15709103978E+02 0.15806753538E+02 0.15841039983E+02 0.15822366671E+02 0.15760867311E+02
 0.15664430837E+02 0.15537538874E+02 0.15380956244E+02 0.15192289179E+02 0.14967396410E+02
 0.14702541470E+02 0.14396992047E+02 0.14055551668E+02 0.13689807465E+02 0.13315958524E+02
 0.12958616850E+02 0.12649386083E+02 0.12420660570E+02 0.12298882798E+02 0.12298882798E+02
 0.12420660570E+02 0.12649386083E+02 0.12958616850E+02 0.13315958524E+02 0.13689807465E+02
 0.14055551668E+02 0.13381480127E+02 0.13678676022E+02 0.13954012872E+02 0.14208891979E+02
 0.14445302214E+02 0.14663685119E+02 0.14861393612E+02 0.15031967187E+02 0.15165299690E+02
 0.15248687307E+02 0.15268688920E+02 0.15213660225E+02 0.15076316803E+02 0.14848995658E+02
 0.14530624885E+02 0.14139367548E+02 0.13711752571E+02 0.13297375302E+02 0.12950410049E+02
 0.12719560498E+02 0.12638587836E+02 0.12719560498E+02 0.12950410049E+02 0.13297375302E+02
 0.13711752571E+02 0.14139367548E+02 0.14530624885E+02 0.14848995658E+02 0.15076316803E+02
 0.15213660225E+02 0.15268688920E+02 0.15248687307E+02 0.15165299690E+02 0.15031967187E+02
 0.14861393612E+02 0.14663685119E+02 0.14445302214E+02 0.14208891979E+02 0.13954012872E+02
 0.13678676022E+02 0.13381480127E+02 0.13063934274E+02 0.12732415027E+02 0.12399179469E+02
 0.12082011681E+02 0.11802144009E+02 0.11581245028E+02 0.11439224018E+02 0.11390187007E+02
 0.11439224018E+02 0.11581245028E+02 0.11802144009E+02 0.12082011681E+02 0.12399179469E+02
 0.12732415027E+02 0.13063934274E+02 0.12369352999E+02 0.12676429253E+02 0.12978065843E+02
 0.13274872241E+02 0.13566112010E+02 0.13848075588E+02 0.14113176711E+02 0.14349931289E+02
 0.14543841530E+02 0.14679108906E+02 0.14741018927E+02 0.14718729088E+02 0.14602955855E+02
 0.14384853619E+02 0.14072964096E+02 0.13695623984E+02 0.13297375302E+02 0.12931780461E+02
 0.12651869296E+02 0.12500115867E+02 0.12500115867E+02 0.12651869296E+02 0.12931780461E+02
 0.13297375302E+02 0.13695623984E+02 0.14072964096E+02 0.14384853619E+02 0.14602955855E+02
 0.14718729088E+02 0.14741018927E+02 0.14679108906E+02 0.14543841530E+02 0.14349931289E+02
 0.14113176711E+02 0.13848075588E+02 0.13566112010E+02 0.13274872241E+02 0.12978065843E+02
 0.12676429253E+02 0.12369352999E+02 0.12056911139E+02 0.11741829360E+02 0.11430875344E+02
 0.11135245580E+02 0.10869757642E+02 0.10650970535E+02 0.10494642196E+02 0.10413098986E+02
 0.10413098986E+02 0.10494642196E+02 0.10650970535E+02 0.10869757642E+02 0.11135245580E+02
 0.11430875344E+02 0.11741829360E+02 0.12056911139E+02 0.11399173687E+02 0.11729831061E+02
 0.12068218486E+02 0.12413150941E+02 0.12760682323E+02 0.13103022072E+02 0.13428277000E+02
 0.13721106129E+02 0.13964234061E+02 0.14140656320E+02 0.14236283608E+02 0.14241043023E+02
 0.14141892095E+02 0.13936843627E+02 0.13643774437E+02 0.13298720898E+02 0.12950410049E+02
 0.12651869296E+02 0.12450647627E+02 0.12379655015E+02 0.12450647627E+02 0.12651869296E+02
 0.12950410049E+02 0.13298720898E+02 0.13643774437E+02 0.13936843627E+02 0.14141892095E+02
 0.14241043023E+02 0.14236283608E+02 0.14140656320E+02 0.13964234061E+02 0.13721106129E+02
 0.13428277000E+02 0.13103022072E+02 0.12760682323E+02 0.12413150941E+02 0.12068218486E+02
 0.11729831061E+02 0.11399173687E+02 0.11076331341E+02 0.10762137585E+02 0.10459747401E+02
 0.10175513745E+02 0.99189175881E+01 0.97015546453E+01 0.95354331468E+01 0.94310006188E+01
 0.93953527604E+01 0.94310006188E+01 0.95354331468E+01 0.97015546453E+01 0.99189175881E+01
 0.10175513745E+02 0.10459747401E+02 0.10762137585E+02 0.11076331341E+02 0.10500539503E+02
 0.10863370598E+02 0.11243585957E+02 0.11637710540E+02 0.12038616541E+02 0.12434994155E+02
 0.12811704787E+02 0.13151018903E+02 0.13434589818E+02 0.13645904810E+02 0.13772795903E+02
 0.13803107419E+02 0.13725693029E+02 0.13546764876E+02 0.13291271650E+02 0.12999345910E+02
 0.12719560498E+02 0.12500115867E+02 0.12379655015E+02 0.12379655015E+02 0.12500115867E+02
 0.12719560498E+02 0.12999345910E+02 0.13291271650E+02 0.13546764876E+02 0.13725693029E+02
 0.13803107419E+02 0.13772795903E+02 0.13645904810E+02 0.13434589818E+02 0.13151018903E+02
 0.12811704787E+02 0.12434994155E+02 0.12038616541E+02 0.11637710540E+02 0.11243585957E+02
 0.10863370598E+02 0.10500539503E+02 0.10156155160E+02 0.98304951488E+01 0.95246517314E+01
 0.92416950287E+01 0.89871121415E+01 0.87684403432E+01 0.85942347151E+01 0.84726714228E+01
 0.84101412474E+01 0.84101412474E+01 0.84726714228E+01 0.85942347151E+01 0.87684403432E+01
 0.89871121415E+01 0.92416950287E+01 0.95246517314E+01 0.98304951488E+01 0.10156155160E+02
 0.96925918130E+01 0.10091446762E+02 0.10514138567E+02 0.10954891722E+02 0.11403870048E+02
 0.11847170573E+02 0.12267697747E+02 0.12646824785E+02 0.12966601843E+02 0.13212186231E+02
 0.13372852903E+02 0.13434534478E+02 0.13391821454E+02 0.13257153212E+02 0.13059254640E+02
 0.12838296665E+02 0.12638587836E+02 0.12500115867E+02 0.12450647627E+02 0.12500115867E+02
 0.12638587836E+02 0.12838296665E+02 0.13059254640E+02 0.13257153212E+02 0.13391821454E+02
 0.13434534478E+02 0.13372852903E+02 0.13212186231E+02 0.12966601843E+02 0.12646824785E+02
 0.12267697747E+02 0.11847170573E+02 0.11403870048E+02 0.10954891722E+02 0.10514138567E+02
 0.10091446762E+02 0.96925918130E+01 0.93200886160E+01 0.89745306423E+01 0.86561003260E+01
 0.83658598463E+01 0.81065132518E+01 0.78824981307E+01 0.76994627863E+01 0.75633425009E+01
 0.74793155975E+01 0.74508932191E+01 0.74793155975E+01 0.75633425009E+01 0.76994627863E+01
 0.78824981307E+01 0.81065132518E+01 0.83658598463E+01 0.86561003260E+01 0.89745306423E+01
 0.93200886160E+01 0.89845869372E+01 0.94197651441E+01 0.98828112187E+01 0.10366028596E+02
 0.10857645051E+02 0.11342249012E+02 0.11802040770E+02 0.12218715682E+02 0.12575672441E+02
 0.12860197126E+02 0.13061555584E+02 0.13166572037E+02 0.13175019151E+02 0.13102642288E+02
 0.12978266336E+02 0.12838296665E+02 0.12719560498E+02 0.12651869296E+02 0.12651869296E+02
 0.12719560498E+02 0.12838296665E+02 0.12978266336E+02 0.13102642288E+02 0.13175019151E+02
 0.13166572037E+02 0.13061555584E+02 0.12860197126E+02 0.12575672441E+02 0.12218715682E+02
 0.11802040770E+02 0.11342249012E+02 0.10857645051E+02 0.10366028596E+02 0.98828112187E+01
 0.94197651441E+01 0.89845869372E+01 0.85812799532E+01 0.82111760829E+01 0.78742812353E+01
 0.75705775971E+01 0.73009643495E+01 0.70676536004E+01 0.68740147934E+01 0.67240150503E+01
 0.66214815362E+01 0.65694009144E+01 0.65694009144E+01 0.66214815362E+01 0.67240150503E+01
 0.68740147934E+01 0.70676536004E+01 0.73009643495E+01 0.75705775971E+01 0.78742812353E+01
 0.82111760829E+01 0.85812799532E+01 0.83781974853E+01 0.88481294388E+01 0.93485762403E+01
 0.98705325376E+01 0.10401159025E+02 0.10924538030E+02 0.11423128590E+02 0.11879671252E+02
 0.12279206532E+02 0.12610782081E+02 0.12863054067E+02 0.13025219551E+02 0.13099805739E+02
 0.13102642288E+02 0.13059254640E+02 0.12999345910E+02 0.12950410049E+02 0.12931780461E+02
 0.12950410049E+02 0.12999345910E+02 0.13059254640E+02 0.13102642288E+02 0.13099805739E+02
 0.13025219551E+02 0.12863054067E+02 0.12610782081E+02 0.12279206532E+02 0.11879671252E+02
 0.11423128590E+02 0.10924538030E+02 0.10401159025E+02 0.98705325376E+01 0.93485762403E+01
 0.88481294388E+01 0.83781974853E+01 0.79439829216E+01 0.75476022016E+01 0.71892312053E+01
 0.68683442754E+01 0.65847298216E+01 0.63390719042E+01 0.61330442440E+01 0.59690134150E+01
 0.58495369583E+01 0.57768459810E+01 0.57524402649E+01 0.57768459810E+01 0.58495369583E+01
 0.59690134150E+01 0.61330442440E+01 0.63390719042E+01 0.65847298216E+01 0.68683442754E+01
 0.71892312053E+01 0.75476022016E+01 0.79439829216E+01 0.78707147346E+01 0.83736935101E+01
 0.89094865655E+01 0.94684337471E+01 0.10037381638E+02 0.10600616975E+02 0.11141360848E+02
 0.11643538614E+02 0.12093495930E+02 0.12481120817E+02 0.12794772089E+02 0.13025219551E+02
 0.13175019151E+02 0.13257153212E+02 0.13291271650E+02 0.13298720898E+02 0.13297375302E+02
 0.13297375302E+02 0.13298720898E+02 0.13291271650E+02 0.13257153212E+02 0.13175019151E+02
 0.13025219551E+02 0.12794772089E+02 0.12481120817E+02 0.12093495930E+02 0.11643538614E+02
 0.11141360848E+02 0.10600616975E+02 0.10037381638E+02 0.94684337471E+01 0.89094865655E+01
 0.83736935101E+01 0.78707147346E+01 0.74064957958E+01 0.69837293232E+01 0.66028042358E+01
 0.62629460275E+01 0.59632422828E+01 0.57033271067E+01 0.54836360746E+01 0.53052884592E+01
 0.51697515979E+01 0.50784614077E+01 0.50325212583E+01 0.50325212583E+01 0.50784614077E+01
 0.51697515979E+01 0.53052884592E+01 0.54836360746E+01 0.57033271067E+01 0.59632422828E+01
 0.62629460275E+01 0.66028042358E+01 0.69837293232E+01 0.74064957958E+01 0.74581706439E+01
 0.79937078462E+01 0.85647982870E+01 0.91616433546E+01 0.97712489364E+01 0.10378407965E+02
 0.10967109583E+02 0.11522083779E+02 0.12030183029E+02 0.12481120817E+02 0.12863054067E+02
 0.13166572037E+02 0.13391821454E+02 0.13546764876E+02 0.13643774437E+02 0.13695623984E+02
 0.13711752571E+02 0.13695623984E+02 0.13643774437E+02 0.13546764876E+02 0.13391821454E+02
 0.13166572037E+02 0.12863054067E+02 0.12481120817E+02 0.12030183029E+02 0.11522083779E+02
 0.10967109583E+02 0.10378407965E+02 0.97712489364E+01 0.91616433546E+01 0.85647982870E+01
 0.79937078462E+01 0.74581706439E+01 0.69644243642E+01 0.65154257347E+01 0.61116375235E+01
 0.57520681213E+01 0.54352766277E+01 0.51601110561E+01 0.49260658735E+01 0.47332829922E+01
 0.45823254964E+01 0.44738881953E+01 0.44085701101E+01 0.43867543182E+01 0.44085701101E+01
 0.44738881953E+01 0.45823254964E+01 0.47332829922E+01 0.49260658735E+01 0.51601110561E+01
 0.54352766277E+01 0.57520681213E+01 0.61116375235E+01 0.65154257347E+01 0.69644243642E+01
 0.71375635538E+01 0.77070721920E+01 0.83156826977E+01 0.89537195803E+01 0.96084739171E+01
 0.10265141557E+02 0.10908076593E+02 0.11522083779E+02 0.12093495930E+02 0.12610782081E+02
 0.13061555584E+02 0.13434534478E+02 0.13725693029E+02 0.13936843627E+02 0.14072964096E+02
 0.14139367548E+02 0.14139367548E+02 0.14072964096E+02 0.13936843627E+02 0.13725693029E+02
 0.13434534478E+02 0.13061555584E+02 0.12610782081E+02 0.12093495930E+02 0.11522083779E+02
 0.10908076593E+02 0.10265141557E+02 0.96084739171E+01 0.89537195803E+01 0.83156826977E+01
 0.77070721920E+01 0.71375635538E+01 0.66133830478E+01 0.61374821657E+01 0.57102114562E+01
 0.53302798109E+01 0.49957351727E+01 0.47047355690E+01 0.44559788093E+01 0.42487874806E+01
 0.40829550213E+01 0.39585083021E+01 0.38755190565E+01 0.38340225732E+01 0.38340225732E+01
 0.38755190565E+01 0.39585083021E+01 0.40829550213E+01 0.42487874806E+01 0.44559788093E+01
 0.47047355690E+01 0.49957351727E+01 0.53302798109E+01 0.57102114562E+01 0.61374821657E+01
 0.66133830478E+01 0.69077695798E+01 0.75144940862E+01 0.81646000443E+01 0.88485163209E+01
 0.95536329006E+01 0.10265141557E+02 0.10967109583E+02 0.11643538614E+02 0.12279206532E+02
 0.12860197126E+02 0.13372852903E+02 0.13803107419E+02 0.14141892095E+02 0.14384853619E+02
 0.14530624885E+02 0.14579172250E+02 0.14530624885E+02 0.14384853619E+02 0.14141892095E+02
 0.13803107419E+02 0.13372852903E+02 0.12860197126E+02 0.12279206532E+02 0.11643538614E+02
 0.10967109583E+02 0.10265141557E+02 0.95536329006E+01 0.88485163209E+01 0.81646000443E+01
 0.75144940862E+01 0.69077695798E+01 0.63505580348E+01 0.58456820133E+01 0.53932628464E+01
 0.49916274662E+01 0.46382747035E+01 0.43306763438E+01 0.40667694245E+01 0.38451128206E+01
 0.36647905075E+01 0.35252058572E+01 0.34259057445E+01 0.33665108864E+01 0.33467467283E+01
 0.33665108864E+01 0.34259057445E+01 0.35252058572E+01 0.36647905075E+01 0.38451128206E+01
 0.40667694245E+01 0.43306763438E+01 0.46382747035E+01 0.49916274662E+01 0.53932628464E+01
 0.58456820133E+01 0.63505580348E+01 0.67692237240E+01 0.74175835055E+01 0.81139174548E+01
 0.88485163209E+01 0.96084739171E+01 0.10378407965E+02 0.11141360848E+02 0.11879671252E+02
 0.12575672441E+02 0.13212186231E+02 0.13772795903E+02 0.14241043023E+02 0.14602955855E+02
 0.14848995658E+02 0.14973369740E+02 0.14973369740E+02 0.14848995658E+02 0.14602955855E+02
 0.14241043023E+02 0.13772795903E+02 0.13212186231E+02 0.12575672441E+02 0.11879671252E+02
 0.11141360848E+02 0.10378407965E+02 0.96084739171E+01 0.88485163209E+01 0.81139174548E+01
 0.74175835055E+01 0.67692237240E+01 0.61750029758E+01 0.56376699712E+01 0.51571334564E+01
 0.47313393896E+01 0.43572338024E+01 0.40315968684E+01 0.37515981428E+01 0.35150262535E+01
 0.33202517745E+01 0.31660521354E+01 0.30514384645E+01 0.29755777861E+01 0.29378270089E+01
 0.29378270089E+01 0.29755777861E+01 0.30514384645E+01 0.31660521354E+01 0.33202517745E+01
 0.35150262535E+01 0.37515981428E+01 0.40315968684E+01 0.43572338024E+01 0.47313393896E+01
 0.51571334564E+01 0.56376699712E+01 0.61750029758E+01 0.67228881124E+01 0.74175835055E+01
 0.81646000443E+01 0.89537195803E+01 0.97712489364E+01 0.10600616975E+02 0.11423128590E+02
 0.12218715682E+02 0.12966601843E+02 0.13645904810E+02 0.14236283608E+02 0.14718729088E+02
 0.15076316803E+02 0.15296079619E+02 0.15370202654E+02 0.15296079619E+02 0.15076316803E+02
 0.14718729088E+02 0.14236283608E+02 0.13645904810E+02 0.12966601843E+02 0.12218715682E+02
 0.11423128590E+02 0.10600616975E+02 0.97712489364E+01 0.89537195803E+01 0.81646000443E+01
 0.74175835055E+01 0.67228881124E+01 0.60869841440E+01 0.55127463142E+01 0.50000209676E+01
 0.45464872504E+01 0.41486210282E+01 0.38025608875E+01 0.35047253445E+01 0.32521197256E+01
 0.30423690282E+01 0.28735860667E+01 0.27442082766E+01 0.26529071008E+01 0.25986085223E+01
 0.25805939203E+01 0.25986085223E+01 0.26529071008E+01 0.27442082766E+01 0.28735860667E+01
 0.30423690282E+01 0.32521197256E+01 0.35047253445E+01 0.38025608875E+01 0.41486210282E+01
 0.45464872504E+01 0.50000209676E+01 0.55127463142E+01 0.60869841440E+01 0.67692237240E+01
 0.75144940862E+01 0.83156826977E+01 0.91616433546E+01 0.10037381638E+02 0.10924538030E+02
 0.11802040770E+02 0.12646824785E+02 0.13434589818E+02 0.14140656320E+02 0.14741018927E+02