Name
   1.0000000000000000
    11.721852    0.000000    0.000000
     0.000000   11.721852    0.000000
     0.000000    0.000000   11.721852
   O    Sr   Ti
    81    27    27
Direct
  0.166667  0.000000  0.166667
  0.833333  0.000000  0.166667
  0.333333  0.833333  0.833333
  0.500000  0.833333  0.666667
  0.500000  0.666667  0.833333
  0.333333  0.833333  0.500000
  0.500000  0.833333  0.333333
  0.500000  0.666667  0.500000
  0.333333  0.833333  0.166667
  0.500000  0.833333  0.000000
  0.500000  0.666667  0.166667
  0.333333  0.500000  0.833333
  0.500000  0.500000  0.666667
  0.500000  0.333333  0.833333
  0.500000  0.500000  0.333333
  0.500000  0.333333  0.500000
  0.333333  0.500000  0.166667
  0.500000  0.500000  0.000000
  0.500000  0.333333  0.166667
  0.333333  0.166667  0.833333
  0.500000  0.166667  0.666667
  0.500000  0.000000  0.833333
  0.833333  0.166667  0.000000
  0.666667  0.166667  0.166667
  0.833333  0.000000  0.500000
  0.833333  0.166667  0.333333
  0.666667  0.833333  0.833333
  0.833333  0.833333  0.666667
  0.833333  0.666667  0.833333
  0.666667  0.833333  0.500000
  0.833333  0.833333  0.333333
  0.833333  0.666667  0.500000
  0.666667  0.833333  0.166667
  0.833333  0.833333  0.000000
  0.833333  0.666667  0.166667
  0.666667  0.500000  0.833333
  0.333333  0.166667  0.500000
  0.833333  0.500000  0.666667
  0.666667  0.500000  0.500000
  0.833333  0.500000  0.333333
  0.833333  0.333333  0.500000
  0.666667  0.500000  0.166667
  0.833333  0.500000  0.000000
  0.833333  0.333333  0.166667
  0.666667  0.166667  0.833333
  0.833333  0.166667  0.666667
  0.833333  0.000000  0.833333
  0.666667  0.166667  0.500000
  0.833333  0.333333  0.833333
  0.500000  0.166667  0.333333
  0.333333  0.500000  0.500000
  0.166667  0.333333  0.833333
  0.500000  0.000000  0.500000
  0.166667  0.333333  0.166667
  0.166667  0.833333  0.333333
  0.166667  0.666667  0.500000
  0.166667  0.500000  0.000000
  0.000000  0.500000  0.166667
  0.000000  0.166667  0.833333
  0.000000  0.833333  0.166667
  0.166667  0.333333  0.500000
  0.166667  0.666667  0.166667
  0.166667  0.500000  0.333333
  0.000000  0.500000  0.500000
  0.000000  0.500000  0.833333
  0.166667  0.500000  0.666667
  0.166667  0.833333  0.000000
  0.166667  0.166667  0.666667
  0.000000  0.833333  0.500000
  0.166667  0.000000  0.500000
  0.166667  0.666667  0.833333
  0.166667  0.166667  0.000000
  0.166667  0.833333  0.666667
  0.000000  0.166667  0.166667
  0.000000  0.166667  0.500000
  0.000000  0.833333  0.833333
  0.166667  0.166667  0.333333
  0.333333  0.166667  0.166667
  0.166667  0.000000  0.833333
  0.500000  0.166667  0.000000
  0.500000  0.000000  0.166667
  0.000000  0.333333  0.333333
  0.666667  0.666667  0.333333
  0.666667  0.000000  0.333333
  0.666667  0.333333  0.666667
  0.000000  0.000000  0.000000
  0.666667  0.000000  0.666667
  0.666667  0.666667  0.000000
  0.666667  0.333333  0.000000
  0.000000  0.000000  0.333333
  0.000000  0.000000  0.666667
  0.666667  0.333333  0.333333
  0.000000  0.333333  0.000000
  0.666667  0.000000  0.000000
  0.333333  0.000000  0.000000
  0.333333  0.666667  0.666667
  0.333333  0.000000  0.333333
  0.333333  0.000000  0.666667
  0.000000  0.666667  0.666667
  0.333333  0.333333  0.000000
  0.333333  0.333333  0.333333
  0.000000  0.666667  0.333333
  0.333333  0.333333  0.666667
  0.000000  0.666667  0.000000
  0.333333  0.666667  0.000000
  0.666667  0.666667  0.666667
  0.333333  0.666667  0.333333
  0.000000  0.333333  0.666667
  0.166667  0.833333  0.166667
  0.500000  0.166667  0.166667
  0.500000  0.166667  0.500000
  0.166667  0.166667  0.166667
  0.166667  0.500000  0.500000
  0.833333  0.833333  0.500000
  0.500000  0.166667  0.833333
  0.500000  0.833333  0.833333
  0.833333  0.166667  0.500000
  0.166667  0.833333  0.833333
  0.833333  0.833333  0.166667
  0.500000  0.500000  0.166667
  0.166667  0.166667  0.500000
  0.166667  0.500000  0.833333
  0.833333  0.833333  0.833333
  0.833333  0.500000  0.833333
  0.500000  0.500000  0.500000
  0.833333  0.166667  0.166667
  0.833333  0.500000  0.500000
  0.166667  0.166667  0.833333
  0.500000  0.500000  0.833333
  0.500000  0.833333  0.500000
  0.833333  0.166667  0.833333
  0.833333  0.500000  0.166667
  0.500000  0.833333  0.166667
  0.166667  0.500000  0.166667
  0.166667  0.833333  0.500000

5 5 5
1.000 2.000 3.000 4.000 5.000 6.000 7.000 8.000 9.000 0.000
1.000 2.000 3.000 4.000 5.000 6.000 7.000 8.000 9.000 0.000
1.000 2.000 3.000 4.000 5.000 6.000 7.000 8.000 9.000 0.000
1.000 2.000 3.000 4.000 5.000 6.000 7.000 8.000 9.000 0.000
1.000 2.000 3.000 4.000 5.000 6.000 7.000 8.000 9.000 0.000
1.000 2.000 3.000 4.000 5.000 6.000 7.000 8.000 9.000 0.000
1.000 2.000 3.000 4.000 5.000 6.000 7.000 8.000 9.000 0.000
1.000 2.000 3.000 4.000 5.000 6.000 7.000 8.000 9.000 0.000
1.000 2.000 3.000 4.000 5.000 6.000 7.000 8.000 9.000 0.000
1.000 2.000 3.000 4.000 5.000 6.000 7.000 8.000 9.000 0.000
1.000 2.000 3.000 4.000 5.000 6.000 7.000 8.000 9.000 0.000
1.000 2.000 3.000 4.000 5.000 6.000 7.000 8.000 9.000 0.000
1.000 2.000 3.000 4.000 5.000

5 5 5
1.000 2.000 3.000 4.000 5.000 6.000 7.000 8.000 9.000 0.000
1.000 2.000 3.000 4.000 5.000 6.000 7.000 8.000 9.000 0.000
1.000 2.000 3.000 4.000 5.000 6.000 7.000 8.000 9.000 0.000
1.000 2.000 3.000 4.000 5.000 6.000 7.000 8.000 9.000 0.000
1.000 2.000 3.000 4.000 5.000 6.000 7.000 8.000 9.000 0.000
1.000 2.000 3.000 4.000 5.000 6.000 7.000 8.000 9.000 0.000
1.000 2.000 3.000 4.000 5.000 6.000 7.000 8.000 9.000 0.000
1.000 2.000 3.000 4.000 5.000 6.000 7.000 8.000 9.000 0.000
1.000 2.000 3.000 4.000 5.000 6.000 7.000 8.000 9.000 0.000
1.000 2.000 3.000 4.000 5.000 6.000 7.000 8.000 9.000 0.000
1.000 2.000 3.000 4.000 5.000 6.000 7.000 8.000 9.000 0.000
1.000 2.000 3.000 4.000 5.000 6.000 7.000 8.000 9.000 0.000
1.000 2.000 3.000 4.000 5.000
