 vasp.5.4.1 24Jun15 (build Sep 15 2015 10:29:54) complex

 executed on           IFC91_ompi date 2017.08.22  11:22:09
 running on   24 total cores
 distrk:  each k-point on    6 cores,    4 groups
 distr:  one band on NCORES_PER_BAND=   1 cores,    6 groups


--------------------------------------------------------------------------------------------------------


 INCAR:
 POTCAR:    PAW_PBE Zn 06Sep2000
 POTCAR:    PAW_PBE S 06Sep2000

 -----------------------------------------------------------------------------
|                                                                             |
|           W    W    AA    RRRRR   N    N  II  N    N   GGGG   !!!           |
|           W    W   A  A   R    R  NN   N  II  NN   N  G    G  !!!           |
|           W    W  A    A  R    R  N N  N  II  N N  N  G       !!!           |
|           W WW W  AAAAAA  RRRRR   N  N N  II  N  N N  G  GGG   !            |
|           WW  WW  A    A  R   R   N   NN  II  N   NN  G    G                |
|           W    W  A    A  R    R  N    N  II  N    N   GGGG   !!!           |
|                                                                             |
|      For optimal performance we recommend to set                            |
|        NCORE= 4 - approx SQRT( number of cores)                             |
|      NCORE specifies how many cores store one orbital (NPAR=cpu/NCORE).     |
|      This setting can  greatly improve the performance of VASP for DFT.     |
|      The default, NPAR=number of cores might be grossly inefficient         |
|      on modern multi-core architectures or massively parallel machines.     |
|      Do your own testing !!!!                                               |
|      Unfortunately you need to use the default for GW and RPA calculations. |
|      (for HF NCORE is supported but not extensively tested yet)             |
|                                                                             |
 -----------------------------------------------------------------------------


 -----------------------------------------------------------------------------
|                                                                             |
|           W    W    AA    RRRRR   N    N  II  N    N   GGGG   !!!           |
|           W    W   A  A   R    R  NN   N  II  NN   N  G    G  !!!           |
|           W    W  A    A  R    R  N N  N  II  N N  N  G       !!!           |
|           W WW W  AAAAAA  RRRRR   N  N N  II  N  N N  G  GGG   !            |
|           WW  WW  A    A  R   R   N   NN  II  N   NN  G    G                |
|           W    W  A    A  R    R  N    N  II  N    N   GGGG   !!!           |
|                                                                             |
|      You have enabled k-point parallelism (KPAR>1).                         |
|      This developmental code was originally  written by Paul Kent at ORNL,  |
|      and carefully double checked in Vienna.                                |
|      GW as well as linear response parallelism added by Martijn Marsman     |
|      and Georg Kresse.                                                      |
|      Carefully verify results versus KPAR=1.                                |
|      Report problems to Paul Kent and Vienna.                               |
|                                                                             |
 -----------------------------------------------------------------------------

 POTCAR:    PAW_PBE Zn 06Sep2000
   VRHFIN =Zn: d10 p2
   LEXCH  = PE
   EATOM  =  1748.8345 eV,  128.5357 Ry

   TITEL  = PAW_PBE Zn 06Sep2000
   LULTRA =        F    use ultrasoft PP ?
   IUNSCR =        1    unscreen: 0-lin 1-nonlin 2-no
   RPACOR =    2.000    partial core radius
   POMASS =   65.390; ZVAL   =   12.000    mass and valenz
   RCORE  =    2.300    outmost cutoff radius
   RWIGS  =    2.400; RWIGS  =    1.270    wigner-seitz radius (au A)
   ENMAX  =  276.723; ENMIN  =  207.542 eV
   RCLOC  =    1.828    cutoff for local pot
   LCOR   =        T    correct aug charges
   LPAW   =        T    paw PP
   EAUG   =  575.892
   DEXC   =    0.000
   RMAX   =    2.347    core radius for proj-oper
   RAUG   =    1.300    factor for augmentation sphere
   RDEP   =    2.324    radius for radial grids
   RDEPT  =    1.788    core radius for aug-charge

   Atomic configuration
    9 entries
     n  l   j            E        occ.
     1  0  0.50     -9524.6913   2.0000
     2  0  0.50     -1158.1882   2.0000
     2  1  1.50     -1003.8506   6.0000
     3  0  0.50      -129.2194   2.0000
     3  1  1.50       -83.3890   6.0000
     3  2  2.50       -10.1410  10.0000
     4  0  0.50        -5.9785   2.0000
     4  1  0.50        -4.0817   0.0000
     4  3  2.50        -1.3606   0.0000
   Description
     l       E           TYP  RCUT    TYP  RCUT
     2    -10.1410010     23  2.300
     2    -11.5015836     23  2.300
     0     -5.9785163     23  2.300
     0      1.1858015     23  2.300
     1     -2.7211652     23  2.300
     1     13.2444212     23  2.300
  local pseudopotential read in
  partial core-charges read in
  partial kinetic energy density read in
  atomic valenz-charges read in
  non local Contribution for L=           2  read in
    real space projection operators read in
  non local Contribution for L=           2  read in
    real space projection operators read in
  non local Contribution for L=           0  read in
    real space projection operators read in
  non local Contribution for L=           0  read in
    real space projection operators read in
  non local Contribution for L=           1  read in
    real space projection operators read in
  non local Contribution for L=           1  read in
    real space projection operators read in
    PAW grid and wavefunctions read in

   number of l-projection  operators is LMAX  =           6
   number of lm-projection operators is LMMAX =          18

 POTCAR:    PAW_PBE S 06Sep2000
   VRHFIN =S : s2p4
   LEXCH  = PE
   EATOM  =   276.8230 eV,   20.3459 Ry

   TITEL  = PAW_PBE S 06Sep2000
   LULTRA =        F    use ultrasoft PP ?
   IUNSCR =        1    unscreen: 0-lin 1-nonlin 2-no
   RPACOR =    1.500    partial core radius
   POMASS =   32.066; ZVAL   =    6.000    mass and valenz
   RCORE  =    1.900    outmost cutoff radius
   RWIGS  =    2.200; RWIGS  =    1.164    wigner-seitz radius (au A)
   ENMAX  =  258.689; ENMIN  =  194.016 eV
   ICORE  =        2    local potential
   LCOR   =        T    correct aug charges
   LPAW   =        T    paw PP
   EAUG   =  335.092
   DEXC   =    0.000
   RMAX   =    1.942    core radius for proj-oper
   RAUG   =    1.300    factor for augmentation sphere
   RDEP   =    1.954    radius for radial grids
   RDEPT  =    1.744    core radius for aug-charge

   Atomic configuration
    6 entries
     n  l   j            E        occ.
     1  0  0.50     -2405.8406   2.0000
     2  0  0.50      -211.7007   2.0000
     2  1  1.50      -156.4958   6.0000
     3  0  0.50       -17.2562   2.0000
     3  1  0.50        -7.0085   4.0000
     3  2  1.50        -6.8029   0.0000
   Description
     l       E           TYP  RCUT    TYP  RCUT
     0    -17.2561641     23  1.900
     0    -15.8743224     23  1.900
     1     -7.0085400     23  1.900
     1     -2.7779785     23  1.900
     2     -6.8029130     23  1.900
  local pseudopotential read in
  partial core-charges read in
  partial kinetic energy density read in
  atomic valenz-charges read in
  non local Contribution for L=           0  read in
    real space projection operators read in
  non local Contribution for L=           0  read in
    real space projection operators read in
  non local Contribution for L=           1  read in
    real space projection operators read in
  non local Contribution for L=           1  read in
    real space projection operators read in
    PAW grid and wavefunctions read in

   number of l-projection  operators is LMAX  =           4
   number of lm-projection operators is LMMAX =           8


 -----------------------------------------------------------------------------
|                                                                             |
|  ADVICE TO THIS USER RUNNING 'VASP/VAMP'   (HEAR YOUR MASTER'S VOICE ...):  |
|                                                                             |
|      You enforced a specific xc-type in the INCAR file,                     |
|      a different type was found on the POTCAR file                          |
|          I HOPE YOU KNOW, WHAT YOU ARE  DOING                               |
|                                                                             |
 -----------------------------------------------------------------------------

  PAW_PBE Zn 06Sep2000                  :
 energy of atom  1       EATOM=-1748.8345
 kinetic energy error for atom=    0.0029 (will be added to EATOM!!)
  PAW_PBE S 06Sep2000                   :
 energy of atom  2       EATOM= -276.8230
 kinetic energy error for atom=    0.0020 (will be added to EATOM!!)


 POSCAR: Zn Se
  positions in direct lattice
  velocities in cartesian coordinates
 exchange correlation table for  LEXCH =       14
   RHO(1)=    0.500       N(1)  =     2000
   RHO(2)=  100.500       N(2)  =     4000



--------------------------------------------------------------------------------------------------------


 ion  position               nearest neighbor table
   1  0.000  0.000  0.000-   3 2.38   4 2.38   4 2.38   3 2.38
   2  0.500  0.500  0.500-   3 2.38   4 2.38   3 2.38   4 2.38
   3  0.250  0.500  0.000-   1 2.38   2 2.38   2 2.38   1 2.38
   4  0.750  0.000  0.500-   1 2.38   2 2.38   1 2.38   2 2.38

  LATTYP: Found a simple tetragonal cell.
 ALAT       =     3.8875988340
 C/A-ratio  =     1.4164088251

  Lattice vectors:

 A1 = (   0.0000000000,   3.8875988340,   0.0000000000)
 A2 = (   0.0000000000,   0.0000000000,  -3.8875988340)
 A3 = (  -5.5064292969,   0.0000000000,   0.0000000000)


Analysis of symmetry for initial positions (statically):
=====================================================================
 Subroutine PRICEL returns following result:

  LATTYP: Found a body centered tetragonal cell.
 ALAT       =     3.8875988340
 C/A-ratio  =     1.4164088251

  Lattice vectors:

 A1 = (   2.7532146484,   1.9437994170,  -1.9437994170)
 A2 = (   2.7532146484,  -1.9437994170,   1.9437994170)
 A3 = (  -2.7532146484,  -1.9437994170,  -1.9437994170)

   2 primitive cells build up your supercell.


 Routine SETGRP: Setting up the symmetry group for a
 simple tetragonal supercell.


 Subroutine GETGRP returns: Found  8 space group operations
 (whereof  8 operations were pure point group operations)
 out of a pool of 16 trial point group operations.


The static configuration has the point symmetry D_2d.


Analysis of symmetry for dynamics (positions and initial velocities):
=====================================================================
 Subroutine PRICEL returns following result:

  LATTYP: Found a body centered tetragonal cell.
 ALAT       =     3.8875988340
 C/A-ratio  =     1.4164088251

  Lattice vectors:

 A1 = (   2.7532146484,   1.9437994170,  -1.9437994170)
 A2 = (   2.7532146484,  -1.9437994170,   1.9437994170)
 A3 = (  -2.7532146484,  -1.9437994170,  -1.9437994170)

   2 primitive cells build up your supercell.


 Routine SETGRP: Setting up the symmetry group for a
 simple tetragonal supercell.


 Subroutine GETGRP returns: Found  8 space group operations
 (whereof  8 operations were pure point group operations)
 out of a pool of 16 trial point group operations.


The dynamic configuration has the point symmetry D_2d.


 KPOINTS: Automatically generated k-point mesh

Automatic generation of k-mesh.
Space group operators:
 irot       det(A)        alpha          n_x          n_y          n_z        tau_x        tau_y        tau_z
    1     1.000000     0.000000     1.000000     0.000000     0.000000     0.000000     0.000000     0.000000
    2    -1.000000    90.000000     1.000000     0.000000     0.000000     0.000000     0.000000     0.000000
    3     1.000000   180.000000     1.000000     0.000000     0.000000     0.000000     0.000000     0.000000
    4    -1.000000    90.000000    -1.000000     0.000000     0.000000     0.000000     0.000000     0.000000
    5    -1.000000   180.000000     0.000000     0.000000     1.000000     0.000000     0.000000     0.000000
    6     1.000000   180.000000     0.000000    -0.707107     0.707107     0.000000     0.000000     0.000000
    7    -1.000000   180.000000     0.000000     1.000000     0.000000     0.000000     0.000000     0.000000
    8     1.000000   180.000000     0.000000     0.707107     0.707107     0.000000     0.000000     0.000000

 Subroutine IBZKPT returns following result:
 ===========================================

 Found     30 irreducible k-points:

 Following reciprocal coordinates:
            Coordinates               Weight
  0.000000  0.000000  0.000000      1.000000
  0.200000  0.000000  0.000000      2.000000
  0.400000  0.000000  0.000000      2.000000
  0.000000  0.142857  0.000000      4.000000
  0.200000  0.142857  0.000000      8.000000
  0.400000  0.142857  0.000000      8.000000
  0.000000  0.285714  0.000000      4.000000
  0.200000  0.285714  0.000000      8.000000
  0.400000  0.285714  0.000000      8.000000
  0.000000  0.428571  0.000000      4.000000
  0.200000  0.428571  0.000000      8.000000
  0.400000  0.428571  0.000000      8.000000
  0.000000  0.142857  0.142857      4.000000
  0.200000  0.142857  0.142857      8.000000
  0.400000  0.142857  0.142857      8.000000
  0.000000  0.285714  0.142857      8.000000
  0.200000  0.285714  0.142857     16.000000
  0.400000  0.285714  0.142857     16.000000
  0.000000  0.428571  0.142857      8.000000
  0.200000  0.428571  0.142857     16.000000
  0.400000  0.428571  0.142857     16.000000
  0.000000  0.285714  0.285714      4.000000
  0.200000  0.285714  0.285714      8.000000
  0.400000  0.285714  0.285714      8.000000
  0.000000  0.428571  0.285714      8.000000
  0.200000  0.428571  0.285714     16.000000
  0.400000  0.428571  0.285714     16.000000
  0.000000  0.428571  0.428571      4.000000
  0.200000  0.428571  0.428571      8.000000
  0.400000  0.428571  0.428571      8.000000

 Following cartesian coordinates:
            Coordinates               Weight
  0.000000  0.000000  0.000000      1.000000
  0.036321  0.000000  0.000000      2.000000
  0.072642  0.000000  0.000000      2.000000
  0.000000  0.036747  0.000000      4.000000
  0.036321  0.036747  0.000000      8.000000
  0.072642  0.036747  0.000000      8.000000
  0.000000  0.073494  0.000000      4.000000
  0.036321  0.073494  0.000000      8.000000
  0.072642  0.073494  0.000000      8.000000
  0.000000  0.110241  0.000000      4.000000
  0.036321  0.110241  0.000000      8.000000
  0.072642  0.110241  0.000000      8.000000
  0.000000  0.036747  0.036747      4.000000
  0.036321  0.036747  0.036747      8.000000
  0.072642  0.036747  0.036747      8.000000
  0.000000  0.073494  0.036747      8.000000
  0.036321  0.073494  0.036747     16.000000
  0.072642  0.073494  0.036747     16.000000
  0.000000  0.110241  0.036747      8.000000
  0.036321  0.110241  0.036747     16.000000
  0.072642  0.110241  0.036747     16.000000
  0.000000  0.073494  0.073494      4.000000
  0.036321  0.073494  0.073494      8.000000
  0.072642  0.073494  0.073494      8.000000
  0.000000  0.110241  0.073494      8.000000
  0.036321  0.110241  0.073494     16.000000
  0.072642  0.110241  0.073494     16.000000
  0.000000  0.110241  0.110241      4.000000
  0.036321  0.110241  0.110241      8.000000
  0.072642  0.110241  0.110241      8.000000



--------------------------------------------------------------------------------------------------------




 Dimension of arrays:
   k-points           NKPTS =     30   k-points in BZ     NKDIM =     30   number of bands    NBANDS=     24
   number of dos      NEDOS =    301   number of ions     NIONS =      4
   non local maximal  LDIM  =      6   non local SUM 2l+1 LMDIM =     18
   total plane-waves  NPLWV =  17280
   max r-space proj   IRMAX =      1   max aug-charges    IRDMAX=   1017
   dimension x,y,z NGX =    30 NGY =   24 NGZ =   24
   dimension x,y,z NGXF=    30 NGYF=   24 NGZF=   24
   support grid    NGXF=    30 NGYF=   24 NGZF=   24
   ions per type =               2   2
 NGX,Y,Z   is equivalent  to a cutoff of   9.06, 10.26, 10.26 a.u.
 NGXF,Y,Z  is equivalent  to a cutoff of   9.06, 10.26, 10.26 a.u.


 I would recommend the setting:
   dimension x,y,z NGX =    30 NGY =   21 NGZ =   21
 SYSTEM =  Name
 POSCAR =  Zn Se

 Startparameter for this run:
   NWRITE =      2    write-flag & timer
   PREC   = single    normal or accurate (medium, high low for compatibility)
   ISTART =      0    job   : 0-new  1-cont  2-samecut
   ICHARG =      2    charge: 1-file 2-atom 10-const
   ISPIN  =      1    spin polarized calculation?
   LNONCOLLINEAR =      F non collinear calculations
   LSORBIT =      F    spin-orbit coupling
   INIWAV =      1    electr: 0-lowe 1-rand  2-diag
   LASPH  =      F    aspherical Exc in radial PAW
   METAGGA=      F    non-selfconsistent MetaGGA calc.

 Electronic Relaxation 1
   ENCUT  =  500.0 eV  36.75 Ry    6.06 a.u.  10.04  7.09  7.09*2*pi/ulx,y,z
   ENINI  =  500.0     initial cutoff
   ENAUG  =  575.9 eV  augmentation charge cutoff
   NELM   =     60;   NELMIN=  2; NELMDL= -5     # of ELM steps
   EDIFF  = 0.1E-05   stopping-criterion for ELM
   LREAL  =      F    real-space projection
   NLSPLINE    = F    spline interpolate recip. space projectors
   LCOMPAT=      F    compatible to vasp.4.4
   GGA_COMPAT  = T    GGA compatible to vasp.4.4-vasp.4.6
   LMAXPAW     = -100 max onsite density
   LMAXMIX     =    2 max onsite mixed and CHGCAR
   VOSKOWN=      0    Vosko Wilk Nusair interpolation
   ROPT   =    0.00000   0.00000
 Ionic relaxation
   EDIFFG = 0.1E-02   stopping-criterion for IOM
   NSW    =      0    number of steps for IOM
   NBLOCK =      1;   KBLOCK =      1    inner block; outer block
   IBRION =     -1    ionic relax: 0-MD 1-quasi-New 2-CG
   NFREE  =      0    steps in history (QN), initial steepest desc. (CG)
   ISIF   =      3    stress and relaxation
   IWAVPR =     10    prediction:  0-non 1-charg 2-wave 3-comb
   ISYM   =      2    0-nonsym 1-usesym 2-fastsym
   LCORR  =      T    Harris-Foulkes like correction to forces

   POTIM  = 0.5000    time-step for ionic-motion
   TEIN   =    0.0    initial temperature
   TEBEG  =    0.0;   TEEND  =   0.0 temperature during run
   SMASS  =  -3.00    Nose mass-parameter (am)
   estimated Nose-frequenzy (Omega)   =  0.10E-29 period in steps =****** mass=  -0.693E-27a.u.
   SCALEE = 1.0000    scale energy and forces
   NPACO  =    256;   APACO  = 16.0  distance and # of slots for P.C.
   PSTRESS=    0.0 pullay stress

  Mass of Ions in am
   POMASS =  65.39 32.07
  Ionic Valenz
   ZVAL   =  12.00  6.00
  Atomic Wigner-Seitz radii
   RWIGS  =  -1.00 -1.00
  virtual crystal weights
   VCA    =   1.00  1.00
   NELECT =      36.0000    total number of electrons
   NUPDOWN=      -1.0000    fix difference up-down

 DOS related values:
   EMIN   =  10.00;   EMAX   =-10.00  energy-range for DOS
   EFERMI =   0.00
   ISMEAR =     0;   SIGMA  =   0.01  broadening in eV -4-tet -1-fermi 0-gaus

 Electronic relaxation 2 (details)
   IALGO  =     38    algorithm
   LDIAG  =      T    sub-space diagonalisation (order eigenvalues)
   LSUBROT=      F    optimize rotation matrix (better conditioning)
   TURBO    =      0    0=normal 1=particle mesh
   IRESTART =      0    0=no restart 2=restart with 2 vectors
   NREBOOT  =      0    no. of reboots
   NMIN     =      0    reboot dimension
   EREF     =   0.00    reference energy to select bands
   IMIX   =      4    mixing-type and parameters
     AMIX     =   0.40;   BMIX     =  1.00
     AMIX_MAG =   1.60;   BMIX_MAG =  1.00
     AMIN     =   0.01
     WC   =   100.;   INIMIX=   1;  MIXPRE=   1;  MAXMIX= -45

 Intra band minimization:
   WEIMIN = 0.0000     energy-eigenvalue tresh-hold
   EBREAK =  0.10E-07  absolut break condition
   DEPER  =   0.30     relativ break condition

   TIME   =   0.40     timestep for ELM

  volume/ion in A,a.u.               =      20.81       140.40
  Fermi-wavevector in a.u.,A,eV,Ry     =   1.238126  2.339718 20.857117  1.532955
  Thomas-Fermi vector in A             =   2.372664

 Write flags
   LWAVE  =      F    write WAVECAR
   LCHARG =      T    write CHGCAR
   LVTOT  =      F    write LOCPOT, total local potential
   LVHAR  =      T    write LOCPOT, Hartree potential only
   LELF   =      F    write electronic localiz. function (ELF)
   LORBIT =     10    0 simple, 1 ext, 2 COOP (PROOUT)


 Dipole corrections
   LMONO  =      F    monopole corrections only (constant potential shift)
   LDIPOL =      F    correct potential (dipole corrections)
   IDIPOL =      0    1-x, 2-y, 3-z, 4-all directions
   EPSILON=  1.0000000 bulk dielectric constant

 Core level calculations are selected ICORELEVEL =  1
 Exchange correlation treatment:
   GGA     =    PS    GGA type
   LEXCH   =    14    internal setting for exchange type
   VOSKOWN=      0    Vosko Wilk Nusair interpolation
   LHFCALC =     F    Hartree Fock is set to
   LHFONE  =     F    Hartree Fock one center treatment
   AEXX    =    0.0000 exact exchange contribution

 Linear response parameters
   LEPSILON=     F    determine dielectric tensor
   LRPA    =     F    only Hartree local field effects (RPA)
   LNABLA  =     F    use nabla operator in PAW spheres
   LVEL    =     F    velocity operator in full k-point grid
   LINTERFAST=   F  fast interpolation
   KINTER  =     0    interpolate to denser k-point grid
   CSHIFT  =0.1000    complex shift for real part using Kramers Kronig
   OMEGAMAX=  -1.0    maximum frequency
   DEG_THRESHOLD= 0.2000000E-02 threshold for treating states as degnerate
   RTIME   =    0.100 relaxation time in fs

 Orbital magnetization related:
   ORBITALMAG=     F  switch on orbital magnetization
   LCHIMAG   =     F  perturbation theory with respect to B field
   DQ        =  0.001000  dq finite difference perturbation B field



--------------------------------------------------------------------------------------------------------


 Static calculation
 charge density and potential will be updated during run
 non-spin polarized calculation
 Variant of blocked Davidson
 Davidson routine will perform the subspace rotation
 perform sub-space diagonalisation
    after iterative eigenvector-optimisation
 modified Broyden-mixing scheme, WC =      100.0
 initial mixing is a Kerker type mixing with AMIX =  0.4000 and BMIX =      1.0000
 Hartree-type preconditioning will be used
 using additional bands            6
 reciprocal scheme for non local part
 use partial core corrections
 calculate Harris-corrections to forces
   (improved forces if not selfconsistent)
 use gradient corrections
 use of overlap-Matrix (Vanderbilt PP)
 Gauss-broadening in eV      SIGMA  =   0.01


--------------------------------------------------------------------------------------------------------


  energy-cutoff  :      500.00
  volume of cell :       83.22
      direct lattice vectors                 reciprocal lattice vectors
     5.506429297  0.000000000  0.000000000     0.181605891  0.000000000  0.000000000
     0.000000000  3.887598834  0.000000000     0.000000000  0.257228187  0.000000000
     0.000000000  0.000000000  3.887598834     0.000000000  0.000000000  0.257228187

  length of vectors
     5.506429297  3.887598834  3.887598834     0.181605891  0.257228187  0.257228187



 k-points in units of 2pi/SCALE and weight: Automatically generated k-point mesh
   0.00000000  0.00000000  0.00000000       0.004
   0.03632118  0.00000000  0.00000000       0.008
   0.07264236  0.00000000  0.00000000       0.008
   0.00000000  0.03674688  0.00000000       0.016
   0.03632118  0.03674688  0.00000000       0.033
   0.07264236  0.03674688  0.00000000       0.033
   0.00000000  0.07349377  0.00000000       0.016
   0.03632118  0.07349377  0.00000000       0.033
   0.07264236  0.07349377  0.00000000       0.033
   0.00000000  0.11024065  0.00000000       0.016
   0.03632118  0.11024065  0.00000000       0.033
   0.07264236  0.11024065  0.00000000       0.033
   0.00000000  0.03674688  0.03674688       0.016
   0.03632118  0.03674688  0.03674688       0.033
   0.07264236  0.03674688  0.03674688       0.033
   0.00000000  0.07349377  0.03674688       0.033
   0.03632118  0.07349377  0.03674688       0.065
   0.07264236  0.07349377  0.03674688       0.065
   0.00000000  0.11024065  0.03674688       0.033
   0.03632118  0.11024065  0.03674688       0.065
   0.07264236  0.11024065  0.03674688       0.065
   0.00000000  0.07349377  0.07349377       0.016
   0.03632118  0.07349377  0.07349377       0.033
   0.07264236  0.07349377  0.07349377       0.033
   0.00000000  0.11024065  0.07349377       0.033
   0.03632118  0.11024065  0.07349377       0.065
   0.07264236  0.11024065  0.07349377       0.065
   0.00000000  0.11024065  0.11024065       0.016
   0.03632118  0.11024065  0.11024065       0.033
   0.07264236  0.11024065  0.11024065       0.033

 k-points in reciprocal lattice and weights: Automatically generated k-point mesh
   0.00000000  0.00000000  0.00000000       0.004
   0.20000000  0.00000000  0.00000000       0.008
   0.40000000  0.00000000  0.00000000       0.008
   0.00000000  0.14285714  0.00000000       0.016
   0.20000000  0.14285714  0.00000000       0.033
   0.40000000  0.14285714  0.00000000       0.033
   0.00000000  0.28571429  0.00000000       0.016
   0.20000000  0.28571429  0.00000000       0.033
   0.40000000  0.28571429  0.00000000       0.033
   0.00000000  0.42857143  0.00000000       0.016
   0.20000000  0.42857143  0.00000000       0.033
   0.40000000  0.42857143  0.00000000       0.033
   0.00000000  0.14285714  0.14285714       0.016
   0.20000000  0.14285714  0.14285714       0.033
   0.40000000  0.14285714  0.14285714       0.033
   0.00000000  0.28571429  0.14285714       0.033
   0.20000000  0.28571429  0.14285714       0.065
   0.40000000  0.28571429  0.14285714       0.065
   0.00000000  0.42857143  0.14285714       0.033
   0.20000000  0.42857143  0.14285714       0.065
   0.40000000  0.42857143  0.14285714       0.065
   0.00000000  0.28571429  0.28571429       0.016
   0.20000000  0.28571429  0.28571429       0.033
   0.40000000  0.28571429  0.28571429       0.033
   0.00000000  0.42857143  0.28571429       0.033
   0.20000000  0.42857143  0.28571429       0.065
   0.40000000  0.42857143  0.28571429       0.065
   0.00000000  0.42857143  0.42857143       0.016
   0.20000000  0.42857143  0.42857143       0.033
   0.40000000  0.42857143  0.42857143       0.033

 position of ions in fractional coordinates (direct lattice)
   0.00000000  0.00000000  0.00000000
   0.50000000  0.50000000  0.50000000
   0.25000000  0.50000000  0.00000000
   0.75000000  0.00000000  0.50000000

 position of ions in cartesian coordinates  (Angst):
   0.00000000  0.00000000  0.00000000
   2.75321465  1.94379942  1.94379942
   1.37660732  1.94379942  0.00000000
   4.12982197  0.00000000  1.94379942



--------------------------------------------------------------------------------------------------------


 k-point  1 :   0.0000 0.0000 0.0000  plane waves:    2101
 k-point  2 :   0.2000 0.0000 0.0000  plane waves:    2084
 k-point  3 :   0.4000 0.0000 0.0000  plane waves:    2096
 k-point  4 :   0.0000 0.1429 0.0000  plane waves:    2090
 k-point  5 :   0.2000 0.1429 0.0000  plane waves:    2096
 k-point  6 :   0.4000 0.1429 0.0000  plane waves:    2101
 k-point  7 :   0.0000 0.2857 0.0000  plane waves:    2106
 k-point  8 :   0.2000 0.2857 0.0000  plane waves:    2114
 k-point  9 :   0.4000 0.2857 0.0000  plane waves:    2121
 k-point 10 :   0.0000 0.4286 0.0000  plane waves:    2120
 k-point 11 :   0.2000 0.4286 0.0000  plane waves:    2122
 k-point 12 :   0.4000 0.4286 0.0000  plane waves:    2108
 k-point 13 :   0.0000 0.1429 0.1429  plane waves:    2100
 k-point 14 :   0.2000 0.1429 0.1429  plane waves:    2112
 k-point 15 :   0.4000 0.1429 0.1429  plane waves:    2108
 k-point 16 :   0.0000 0.2857 0.1429  plane waves:    2107
 k-point 17 :   0.2000 0.2857 0.1429  plane waves:    2118
 k-point 18 :   0.4000 0.2857 0.1429  plane waves:    2112
 k-point 19 :   0.0000 0.4286 0.1429  plane waves:    2108
 k-point 20 :   0.2000 0.4286 0.1429  plane waves:    2122
 k-point 21 :   0.4000 0.4286 0.1429  plane waves:    2117
 k-point 22 :   0.0000 0.2857 0.2857  plane waves:    2100
 k-point 23 :   0.2000 0.2857 0.2857  plane waves:    2111
 k-point 24 :   0.4000 0.2857 0.2857  plane waves:    2116
 k-point 25 :   0.0000 0.4286 0.2857  plane waves:    2113
 k-point 26 :   0.2000 0.4286 0.2857  plane waves:    2113
 k-point 27 :   0.4000 0.4286 0.2857  plane waves:    2124
 k-point 28 :   0.0000 0.4286 0.4286  plane waves:    2116
 k-point 29 :   0.2000 0.4286 0.4286  plane waves:    2104
 k-point 30 :   0.4000 0.4286 0.4286  plane waves:    2123

 maximum and minimum number of plane-waves per node :      2124     2084

 maximum number of plane-waves:      2124
 maximum index in each direction:
   IXMAX=   10   IYMAX=    7   IZMAX=    7
   IXMIN=  -10   IYMIN=   -7   IZMIN=   -7

 WARNING: aliasing errors must be expected set NGX to  42 to avoid them
 WARNING: aliasing errors must be expected set NGY to  30 to avoid them
 WARNING: aliasing errors must be expected set NGZ to  30 to avoid them
 aliasing errors are usually negligible using standard VASP settings
 and one can safely disregard these warnings

 serial   3D FFT for wavefunctions
 parallel 3D FFT for charge:
    minimum data exchange during FFTs selected (reduces bandwidth)


 total amount of memory used by VASP on root node    53810. kBytes
========================================================================

   base      :      30000. kBytes
   nonl-proj :      18487. kBytes
   fftplans  :        207. kBytes
   grid      :        873. kBytes
   one-center:         62. kBytes
   wavefun   :       4181. kBytes

     INWAV:  cpu time    0.0000: real time    0.0000
 Broyden mixing: mesh for mixing (old mesh)
   NGX = 21   NGY = 15   NGZ = 15
  (NGX  = 30   NGY  = 24   NGZ  = 24)
  gives a total of   4725 points

 initial charge density was supplied:
 charge density of overlapping atoms calculated
 number of electron      36.0000000 magnetization
 keeping initial charge density in first step


--------------------------------------------------------------------------------------------------------


 Maximum index for augmentation-charges          138 (set IRDMAX)


--------------------------------------------------------------------------------------------------------


 First call to EWALD:  gamma=   0.406
 Maximum number of real-space cells 2x 3x 3
 Maximum number of reciprocal cells 3x 2x 2

 FEWALD executed in parallel
    FEWALD:  cpu time    0.0020: real time    0.0062


----------------------------------------- Iteration    1(   1)  ---------------------------------------


    POTLOK:  cpu time    0.0046: real time    0.0177
    SETDIJ:  cpu time    0.0019: real time    0.0069
     EDDAV:  cpu time    0.2931: real time    0.8663
       DOS:  cpu time    0.0016: real time    0.0049
    --------------------------------------------
      LOOP:  cpu time    0.3105: real time    0.9050

 eigenvalue-minimisations  :  1440
 total energy-change (2. order) : 0.1805601E+03  (-0.1785668E+04)
 number of electron      36.0000000 magnetization
 augmentation part       36.0000000 magnetization

 Free energy of the ion-electron system (eV)
  ---------------------------------------------------
  alpha Z        PSCENC =       135.87904912
  Ewald energy   TEWEN  =     -2462.69869015
  -Hartree energ DENC   =     -1406.18369287
  -exchange      EXHF   =         0.00000000
  -V(xc)+E(xc)   XCENC  =       140.30236100
  PAW double counting   =      3343.44361914    -3692.01684003
  entropy T*S    EENTRO =        -0.00006746
  eigenvalues    EBANDS =        73.68998111
  atomic energy  EATOM  =      4048.14435094
  Solvation  Ediel_sol  =         0.00000000
  ---------------------------------------------------
  free energy    TOTEN  =       180.56007081 eV

  energy without entropy =      180.56013827  energy(sigma->0) =      180.56010454


--------------------------------------------------------------------------------------------------------




----------------------------------------- Iteration    1(   2)  ---------------------------------------


     EDDAV:  cpu time    0.3464: real time    1.0262
       DOS:  cpu time    0.0015: real time    0.0049
    --------------------------------------------
      LOOP:  cpu time    0.3487: real time    1.0343

 eigenvalue-minimisations  :  1704
 total energy-change (2. order) :-0.1844052E+03  (-0.1811923E+03)
 number of electron      36.0000000 magnetization
 augmentation part       36.0000000 magnetization

 Free energy of the ion-electron system (eV)
  ---------------------------------------------------
  alpha Z        PSCENC =       135.87904912
  Ewald energy   TEWEN  =     -2462.69869015
  -Hartree energ DENC   =     -1406.18369287
  -exchange      EXHF   =         0.00000000
  -V(xc)+E(xc)   XCENC  =       140.30236100
  PAW double counting   =      3343.44361914    -3692.01684003
  entropy T*S    EENTRO =        -0.00009506
  eigenvalues    EBANDS =      -110.71516399
  atomic energy  EATOM  =      4048.14435094
  Solvation  Ediel_sol  =         0.00000000
  ---------------------------------------------------
  free energy    TOTEN  =        -3.84510190 eV

  energy without entropy =       -3.84500684  energy(sigma->0) =       -3.84505437


--------------------------------------------------------------------------------------------------------




----------------------------------------- Iteration    1(   3)  ---------------------------------------


     EDDAV:  cpu time    0.3168: real time    0.9817
       DOS:  cpu time    0.0005: real time    0.0017
    --------------------------------------------
      LOOP:  cpu time    0.3201: real time    0.9890

 eigenvalue-minimisations  :  1728
 total energy-change (2. order) :-0.1187200E+02  (-0.1183464E+02)
 number of electron      36.0000000 magnetization
 augmentation part       36.0000000 magnetization

 Free energy of the ion-electron system (eV)
  ---------------------------------------------------
  alpha Z        PSCENC =       135.87904912
  Ewald energy   TEWEN  =     -2462.69869015
  -Hartree energ DENC   =     -1406.18369287
  -exchange      EXHF   =         0.00000000
  -V(xc)+E(xc)   XCENC  =       140.30236100
  PAW double counting   =      3343.44361914    -3692.01684003
  entropy T*S    EENTRO =        -0.00000000
  eigenvalues    EBANDS =      -122.58726171
  atomic energy  EATOM  =      4048.14435094
  Solvation  Ediel_sol  =         0.00000000
  ---------------------------------------------------
  free energy    TOTEN  =       -15.71710455 eV

  energy without entropy =      -15.71710455  energy(sigma->0) =      -15.71710455


--------------------------------------------------------------------------------------------------------




----------------------------------------- Iteration    1(   4)  ---------------------------------------


     EDDAV:  cpu time    0.3578: real time    1.0752
       DOS:  cpu time    0.0005: real time    0.0016
    --------------------------------------------
      LOOP:  cpu time    0.3591: real time    1.0804

 eigenvalue-minimisations  :  1932
 total energy-change (2. order) :-0.1592984E+00  (-0.1592628E+00)
 number of electron      36.0000000 magnetization
 augmentation part       36.0000000 magnetization

 Free energy of the ion-electron system (eV)
  ---------------------------------------------------
  alpha Z        PSCENC =       135.87904912
  Ewald energy   TEWEN  =     -2462.69869015
  -Hartree energ DENC   =     -1406.18369287
  -exchange      EXHF   =         0.00000000
  -V(xc)+E(xc)   XCENC  =       140.30236100
  PAW double counting   =      3343.44361914    -3692.01684003
  entropy T*S    EENTRO =        -0.00000000
  eigenvalues    EBANDS =      -122.74656014
  atomic energy  EATOM  =      4048.14435094
  Solvation  Ediel_sol  =         0.00000000
  ---------------------------------------------------
  free energy    TOTEN  =       -15.87640298 eV

  energy without entropy =      -15.87640298  energy(sigma->0) =      -15.87640298


--------------------------------------------------------------------------------------------------------




----------------------------------------- Iteration    1(   5)  ---------------------------------------


     EDDAV:  cpu time    0.3235: real time    1.0219
       DOS:  cpu time    0.0005: real time    0.0098
    CHARGE:  cpu time    0.0140: real time    0.0334
    MIXING:  cpu time    0.0004: real time    0.0012
    --------------------------------------------
      LOOP:  cpu time    0.3394: real time    1.0692

 eigenvalue-minimisations  :  1776
 total energy-change (2. order) :-0.2498994E-02  (-0.2498866E-02)
 number of electron      35.9999513 magnetization
 augmentation part       14.2416114 magnetization

 Broyden mixing:
  rms(total) = 0.85143E+00    rms(broyden)= 0.85134E+00
  rms(prec ) = 0.11735E+01
  weight for this iteration     100.00

 Free energy of the ion-electron system (eV)
  ---------------------------------------------------
  alpha Z        PSCENC =       135.87904912
  Ewald energy   TEWEN  =     -2462.69869015
  -Hartree energ DENC   =     -1406.18369287
  -exchange      EXHF   =         0.00000000
  -V(xc)+E(xc)   XCENC  =       140.30236100
  PAW double counting   =      3343.44361914    -3692.01684003
  entropy T*S    EENTRO =        -0.00000000
  eigenvalues    EBANDS =      -122.74905913
  atomic energy  EATOM  =      4048.14435094
  Solvation  Ediel_sol  =         0.00000000
  ---------------------------------------------------
  free energy    TOTEN  =       -15.87890197 eV

  energy without entropy =      -15.87890197  energy(sigma->0) =      -15.87890197


--------------------------------------------------------------------------------------------------------




----------------------------------------- Iteration    1(   6)  ---------------------------------------


    POTLOK:  cpu time    0.0038: real time    0.0121
    SETDIJ:  cpu time    0.0007: real time    0.0028
     EDDAV:  cpu time    0.3833: real time    1.1135
       DOS:  cpu time    0.0006: real time    0.0103
    CHARGE:  cpu time    0.0142: real time    0.0379
    MIXING:  cpu time    0.0005: real time    0.0015
    --------------------------------------------
      LOOP:  cpu time    0.4042: real time    1.1811

 eigenvalue-minimisations  :  1992
 total energy-change (2. order) : 0.7859874E+00  (-0.2369430E+00)
 number of electron      35.9999503 magnetization
 augmentation part       14.4759261 magnetization

 Broyden mixing:
  rms(total) = 0.66821E+00    rms(broyden)= 0.66820E+00
  rms(prec ) = 0.72399E+00
  weight for this iteration     100.00

 eigenvalues of (default mixing * dielectric matrix)
  average eigenvalue GAMMA=   1.7492
  1.7492

 Free energy of the ion-electron system (eV)
  ---------------------------------------------------
  alpha Z        PSCENC =       135.87904912
  Ewald energy   TEWEN  =     -2462.69869015
  -Hartree energ DENC   =     -1391.07202227
  -exchange      EXHF   =         0.00000000
  -V(xc)+E(xc)   XCENC  =       140.13640086
  PAW double counting   =      3564.19738405    -3906.80243604
  entropy T*S    EENTRO =        -0.00000000
  eigenvalues    EBANDS =      -142.87695107
  atomic energy  EATOM  =      4048.14435094
  Solvation  Ediel_sol  =         0.00000000
  ---------------------------------------------------
  free energy    TOTEN  =       -15.09291455 eV

  energy without entropy =      -15.09291455  energy(sigma->0) =      -15.09291455


--------------------------------------------------------------------------------------------------------




----------------------------------------- Iteration    1(   7)  ---------------------------------------


    POTLOK:  cpu time    0.0041: real time    0.0152
    SETDIJ:  cpu time    0.0007: real time    0.0024
     EDDAV:  cpu time    0.3013: real time    0.9231
       DOS:  cpu time    0.0006: real time    0.0088
    CHARGE:  cpu time    0.0145: real time    0.0392
    MIXING:  cpu time    0.0005: real time    0.0019
    --------------------------------------------
      LOOP:  cpu time    0.3227: real time    0.9932

 eigenvalue-minimisations  :  1536
 total energy-change (2. order) : 0.8729588E-02  (-0.1012818E+00)
 number of electron      35.9999493 magnetization
 augmentation part       14.4620518 magnetization

 Broyden mixing:
  rms(total) = 0.31350E+00    rms(broyden)= 0.31350E+00
  rms(prec ) = 0.33171E+00
  weight for this iteration     100.00

 eigenvalues of (default mixing * dielectric matrix)
  average eigenvalue GAMMA=   1.6839
  0.9493  2.4186

 Free energy of the ion-electron system (eV)
  ---------------------------------------------------
  alpha Z        PSCENC =       135.87904912
  Ewald energy   TEWEN  =     -2462.69869015
  -Hartree energ DENC   =     -1392.88654967
  -exchange      EXHF   =         0.00000000
  -V(xc)+E(xc)   XCENC  =       140.47868351
  PAW double counting   =      3855.45812497    -4202.24600432
  entropy T*S    EENTRO =        -0.00000000
  eigenvalues    EBANDS =      -137.21314938
  atomic energy  EATOM  =      4048.14435094
  Solvation  Ediel_sol  =         0.00000000
  ---------------------------------------------------
  free energy    TOTEN  =       -15.08418496 eV

  energy without entropy =      -15.08418496  energy(sigma->0) =      -15.08418496


--------------------------------------------------------------------------------------------------------




----------------------------------------- Iteration    1(   8)  ---------------------------------------


    POTLOK:  cpu time    0.0039: real time    0.0140
    SETDIJ:  cpu time    0.0006: real time    0.0029
     EDDAV:  cpu time    0.3623: real time    1.0795
       DOS:  cpu time    0.0006: real time    0.0154
    CHARGE:  cpu time    0.0133: real time    0.0252
    MIXING:  cpu time    0.0006: real time    0.0020
    --------------------------------------------
      LOOP:  cpu time    0.3823: real time    1.1414

 eigenvalue-minimisations  :  1920
 total energy-change (2. order) : 0.6785082E-02  (-0.3019842E-02)
 number of electron      35.9999495 magnetization
 augmentation part       14.4468284 magnetization

 Broyden mixing:
  rms(total) = 0.73488E-01    rms(broyden)= 0.73488E-01
  rms(prec ) = 0.82677E-01
  weight for this iteration     100.00

 eigenvalues of (default mixing * dielectric matrix)
  average eigenvalue GAMMA=   1.5142
  2.3738  1.0844  1.0844

 Free energy of the ion-electron system (eV)
  ---------------------------------------------------
  alpha Z        PSCENC =       135.87904912
  Ewald energy   TEWEN  =     -2462.69869015
  -Hartree energ DENC   =     -1391.70130055
  -exchange      EXHF   =         0.00000000
  -V(xc)+E(xc)   XCENC  =       140.46072946
  PAW double counting   =      4064.47107370    -4412.63510372
  entropy T*S    EENTRO =        -0.00000000
  eigenvalues    EBANDS =      -136.99750868
  atomic energy  EATOM  =      4048.14435094
  Solvation  Ediel_sol  =         0.00000000
  ---------------------------------------------------
  free energy    TOTEN  =       -15.07739988 eV

  energy without entropy =      -15.07739988  energy(sigma->0) =      -15.07739988


--------------------------------------------------------------------------------------------------------




----------------------------------------- Iteration    1(   9)  ---------------------------------------


    POTLOK:  cpu time    0.0039: real time    0.0125
    SETDIJ:  cpu time    0.0006: real time    0.0022
     EDDAV:  cpu time    0.3492: real time    1.0495
       DOS:  cpu time    0.0006: real time    0.0087
    CHARGE:  cpu time    0.0138: real time    0.0338
    MIXING:  cpu time    0.0006: real time    0.0020
    --------------------------------------------
      LOOP:  cpu time    0.3697: real time    1.1112

 eigenvalue-minimisations  :  1848
 total energy-change (2. order) : 0.3416261E-03  (-0.5453682E-03)
 number of electron      35.9999495 magnetization
 augmentation part       14.4534708 magnetization

 Broyden mixing:
  rms(total) = 0.14558E-01    rms(broyden)= 0.14558E-01
  rms(prec ) = 0.16180E-01
  weight for this iteration     100.00

 eigenvalues of (default mixing * dielectric matrix)
  average eigenvalue GAMMA=   1.3982
  2.2924  1.0591  1.0591  1.1821

 Free energy of the ion-electron system (eV)
  ---------------------------------------------------
  alpha Z        PSCENC =       135.87904912
  Ewald energy   TEWEN  =     -2462.69869015
  -Hartree energ DENC   =     -1390.56862483
  -exchange      EXHF   =         0.00000000
  -V(xc)+E(xc)   XCENC  =       140.44099732
  PAW double counting   =      4140.10630609    -4488.31668945
  entropy T*S    EENTRO =        -0.00000000
  eigenvalues    EBANDS =      -138.06375731
  atomic energy  EATOM  =      4048.14435094
  Solvation  Ediel_sol  =         0.00000000
  ---------------------------------------------------
  free energy    TOTEN  =       -15.07705825 eV

  energy without entropy =      -15.07705825  energy(sigma->0) =      -15.07705825


--------------------------------------------------------------------------------------------------------




----------------------------------------- Iteration    1(  10)  ---------------------------------------


    POTLOK:  cpu time    0.0041: real time    0.0157
    SETDIJ:  cpu time    0.0007: real time    0.0025
     EDDAV:  cpu time    0.3515: real time    1.0822
       DOS:  cpu time    0.0006: real time    0.0095
    CHARGE:  cpu time    0.0133: real time    0.0313
    MIXING:  cpu time    0.0007: real time    0.0020
    --------------------------------------------
      LOOP:  cpu time    0.3719: real time    1.1459

 eigenvalue-minimisations  :  1920
 total energy-change (2. order) :-0.1304505E-03  (-0.4725689E-04)
 number of electron      35.9999495 magnetization
 augmentation part       14.4526572 magnetization

 Broyden mixing:
  rms(total) = 0.72675E-02    rms(broyden)= 0.72675E-02
  rms(prec ) = 0.90198E-02
  weight for this iteration     100.00

 eigenvalues of (default mixing * dielectric matrix)
  average eigenvalue GAMMA=   1.7480
  3.0122  2.5954  1.0673  1.0673  0.9979

 Free energy of the ion-electron system (eV)
  ---------------------------------------------------
  alpha Z        PSCENC =       135.87904912
  Ewald energy   TEWEN  =     -2462.69869015
  -Hartree energ DENC   =     -1390.69880556
  -exchange      EXHF   =         0.00000000
  -V(xc)+E(xc)   XCENC  =       140.44413227
  PAW double counting   =      4128.35806776    -4476.60646714
  entropy T*S    EENTRO =        -0.00000000
  eigenvalues    EBANDS =      -137.89882596
  atomic energy  EATOM  =      4048.14435094
  Solvation  Ediel_sol  =         0.00000000
  ---------------------------------------------------
  free energy    TOTEN  =       -15.07718870 eV

  energy without entropy =      -15.07718870  energy(sigma->0) =      -15.07718870


--------------------------------------------------------------------------------------------------------




----------------------------------------- Iteration    1(  11)  ---------------------------------------


    POTLOK:  cpu time    0.0038: real time    0.0117
    SETDIJ:  cpu time    0.0008: real time    0.0031
     EDDAV:  cpu time    0.3148: real time    0.9802
       DOS:  cpu time    0.0006: real time    0.0086
    CHARGE:  cpu time    0.0134: real time    0.0326
    MIXING:  cpu time    0.0007: real time    0.0022
    --------------------------------------------
      LOOP:  cpu time    0.3351: real time    1.0409

 eigenvalue-minimisations  :  1656
 total energy-change (2. order) :-0.8544227E-04  (-0.1389687E-04)
 number of electron      35.9999495 magnetization
 augmentation part       14.4521985 magnetization

 Broyden mixing:
  rms(total) = 0.26036E-02    rms(broyden)= 0.26036E-02
  rms(prec ) = 0.28390E-02
  weight for this iteration     100.00

 eigenvalues of (default mixing * dielectric matrix)
  average eigenvalue GAMMA=   1.5975
  2.7580  2.3519  1.4143  0.9445  1.0581  1.0581

 Free energy of the ion-electron system (eV)
  ---------------------------------------------------
  alpha Z        PSCENC =       135.87904912
  Ewald energy   TEWEN  =     -2462.69869015
  -Hartree energ DENC   =     -1390.77832187
  -exchange      EXHF   =         0.00000000
  -V(xc)+E(xc)   XCENC  =       140.44783637
  PAW double counting   =      4118.77618998    -4467.06177921
  entropy T*S    EENTRO =        -0.00000000
  eigenvalues    EBANDS =      -137.78590933
  atomic energy  EATOM  =      4048.14435094
  Solvation  Ediel_sol  =         0.00000000
  ---------------------------------------------------
  free energy    TOTEN  =       -15.07727415 eV

  energy without entropy =      -15.07727415  energy(sigma->0) =      -15.07727415


--------------------------------------------------------------------------------------------------------




----------------------------------------- Iteration    1(  12)  ---------------------------------------


    POTLOK:  cpu time    0.0041: real time    0.0140
    SETDIJ:  cpu time    0.0007: real time    0.0021
     EDDAV:  cpu time    0.3504: real time    1.0669
       DOS:  cpu time    0.0006: real time    0.0099
    CHARGE:  cpu time    0.0138: real time    0.0320
    MIXING:  cpu time    0.0008: real time    0.0026
    --------------------------------------------
      LOOP:  cpu time    0.3713: real time    1.1301

 eigenvalue-minimisations  :  1932
 total energy-change (2. order) : 0.2658693E-05  (-0.1357589E-05)
 number of electron      35.9999495 magnetization
 augmentation part       14.4526816 magnetization

 Broyden mixing:
  rms(total) = 0.75570E-03    rms(broyden)= 0.75569E-03
  rms(prec ) = 0.87754E-03
  weight for this iteration     100.00

 eigenvalues of (default mixing * dielectric matrix)
  average eigenvalue GAMMA=   1.7586
  3.2200  2.4752  2.4752  1.1647  1.0165  1.0165  0.9422

 Free energy of the ion-electron system (eV)
  ---------------------------------------------------
  alpha Z        PSCENC =       135.87904912
  Ewald energy   TEWEN  =     -2462.69869015
  -Hartree energ DENC   =     -1390.73408686
  -exchange      EXHF   =         0.00000000
  -V(xc)+E(xc)   XCENC  =       140.44734269
  PAW double counting   =      4122.59654286    -4470.86993455
  entropy T*S    EENTRO =        -0.00000000
  eigenvalues    EBANDS =      -137.84184554
  atomic energy  EATOM  =      4048.14435094
  Solvation  Ediel_sol  =         0.00000000
  ---------------------------------------------------
  free energy    TOTEN  =       -15.07727149 eV

  energy without entropy =      -15.07727149  energy(sigma->0) =      -15.07727149


--------------------------------------------------------------------------------------------------------




----------------------------------------- Iteration    1(  13)  ---------------------------------------


    POTLOK:  cpu time    0.0041: real time    0.0128
    SETDIJ:  cpu time    0.0006: real time    0.0026
     EDDAV:  cpu time    0.3213: real time    0.9460
       DOS:  cpu time    0.0005: real time    0.0017
    --------------------------------------------
      LOOP:  cpu time    0.3341: real time    0.9964

 eigenvalue-minimisations  :  1608
 total energy-change (2. order) :-0.8852307E-06  (-0.3028900E-06)
 number of electron      35.9999495 magnetization
 augmentation part       14.4526816 magnetization

 Free energy of the ion-electron system (eV)
  ---------------------------------------------------
  alpha Z        PSCENC =       135.87904912
  Ewald energy   TEWEN  =     -2462.69869015
  -Hartree energ DENC   =     -1390.75987900
  -exchange      EXHF   =         0.00000000
  -V(xc)+E(xc)   XCENC  =       140.44784228
  PAW double counting   =      4121.59162342    -4469.86135129
  entropy T*S    EENTRO =        -0.00000000
  eigenvalues    EBANDS =      -137.82021771
  atomic energy  EATOM  =      4048.14435094
  Solvation  Ediel_sol  =         0.00000000
  ---------------------------------------------------
  free energy    TOTEN  =       -15.07727237 eV

  energy without entropy =      -15.07727237  energy(sigma->0) =      -15.07727237


--------------------------------------------------------------------------------------------------------




 the core state eigenenergies are
   1-  1s  -9518.7466  2s  -1152.2398  2p   -997.8963  3s   -123.2899  3p    -77.4542

   2-  1s  -9518.7466  2s  -1152.2398  2p   -997.8963  3s   -123.2899  3p    -77.4542

   3-  1s  -2397.1367  2s   -203.1859  2p   -147.9599
   4-  1s  -2397.1367  2s   -203.1859  2p   -147.9599

 E-fermi :   1.6361     XC(G=0):  -9.5972     alpha+bet : -7.6394


 k-point     1 :       0.0000    0.0000    0.0000
  band No.  band energies     occupation
      1     -11.2614      2.00000
      2     -10.1293      2.00000
      3      -4.6371      2.00000
      4      -4.6364      2.00000
      5      -4.6356      2.00000
      6      -4.6356      2.00000
      7      -4.3324      2.00000
      8      -4.3324      2.00000
      9      -4.2051      2.00000
     10      -4.1986      2.00000
     11      -4.1333      2.00000
     12      -4.0020      2.00000
     13      -2.8753      2.00000
     14      -0.5226      2.00000
     15      -0.5226      2.00000
     16       1.5312      2.00000
     17       1.5367      2.00000
     18       1.5367      2.00000
     19       3.2883      0.00000
     20       4.8937      0.00000
     21       5.5136      0.00000
     22       7.8710      0.00000
     23       7.8710      0.00000
     24       7.8752      0.00000

 k-point     2 :       0.2000    0.0000    0.0000
  band No.  band energies     occupation
      1     -11.1685      2.00000
      2     -10.2562      2.00000
      3      -4.6463      2.00000
      4      -4.6458      2.00000
      5      -4.6129      2.00000
      6      -4.6129      2.00000
      7      -4.3696      2.00000
      8      -4.3696      2.00000
      9      -4.2146      2.00000
     10      -4.1924      2.00000
     11      -4.1395      2.00000
     12      -4.1273      2.00000
     13      -2.4494      2.00000
     14      -0.3567      2.00000
     15      -0.3567      2.00000
     16       0.7340      2.00000
     17       1.2855      2.00000
     18       1.2855      2.00000
     19       4.1679      0.00000
     20       5.0864      0.00000
     21       5.6615      0.00000
     22       7.3789      0.00000
     23       8.2583      0.00000
     24       8.2583      0.00000

 k-point     3 :       0.4000    0.0000    0.0000
  band No.  band energies     occupation
      1     -10.9124      2.00000
      2     -10.5662      2.00000
      3      -4.6642      2.00000
      4      -4.6640      2.00000
      5      -4.5486      2.00000
      6      -4.5486      2.00000
      7      -4.4567      2.00000
      8      -4.4567      2.00000
      9      -4.2340      2.00000
     10      -4.2278      2.00000
     11      -4.1760      2.00000
     12      -4.1558      2.00000
     13      -1.5456      2.00000
     14      -0.4474      2.00000
     15       0.0945      2.00000
     16       0.0945      2.00000
     17       0.7086      2.00000
     18       0.7086      2.00000
     19       5.3938      0.00000
     20       5.6261      0.00000
     21       5.8910      0.00000
     22       6.4587      0.00000
     23       9.2531      0.00000
     24       9.2531      0.00000

 k-point     4 :       0.0000    0.1429    0.0000
  band No.  band energies     occupation
      1     -11.1668      2.00000
      2     -10.1301      2.00000
      3      -4.6359      2.00000
      4      -4.6212      2.00000
      5      -4.6144      2.00000
      6      -4.5962      2.00000
      7      -4.3508      2.00000
      8      -4.3267      2.00000
      9      -4.2042      2.00000
     10      -4.2023      2.00000
     11      -4.1467      2.00000
     12      -3.9441      2.00000
     13      -2.8751      2.00000
     14      -0.9678      2.00000
     15      -0.3901      2.00000
     16       0.5929      2.00000
     17       1.2589      2.00000
     18       1.4800      2.00000
     19       4.1121      0.00000
     20       5.2478      0.00000
     21       6.1704      0.00000
     22       7.6325      0.00000
     23       8.0172      0.00000
     24       8.2416      0.00000

 k-point     5 :       0.2000    0.1429    0.0000
  band No.  band energies     occupation
      1     -11.0797      2.00000
      2     -10.2431      2.00000
      3      -4.6277      2.00000
      4      -4.6052      2.00000
      5      -4.6024      2.00000
      6      -4.6008      2.00000
      7      -4.3870      2.00000
      8      -4.3632      2.00000
      9      -4.2103      2.00000
     10      -4.1967      2.00000
     11      -4.1479      2.00000
     12      -4.0772      2.00000
     13      -2.5480      2.00000
     14      -0.7091      2.00000
     15      -0.2370      2.00000
     16      -0.0735      2.00000
     17       1.2598      2.00000
     18       1.3327      2.00000
     19       4.4531      0.00000
     20       5.4302      0.00000
     21       6.2832      0.00000
     22       7.6909      0.00000
     23       8.2391      0.00000
     24       8.3117      0.00000

 k-point     6 :       0.4000    0.1429    0.0000
  band No.  band energies     occupation
      1     -10.8413      2.00000
      2     -10.5230      2.00000
      3      -4.6298      2.00000
      4      -4.6181      2.00000
      5      -4.5477      2.00000
      6      -4.5433      2.00000
      7      -4.4673      2.00000
      8      -4.4493      2.00000
      9      -4.2249      2.00000
     10      -4.2051      2.00000
     11      -4.1781      2.00000
     12      -4.1584      2.00000
     13      -1.8669      2.00000
     14      -1.0208      2.00000
     15      -0.0361      2.00000
     16       0.1795      2.00000
     17       0.7421      2.00000
     18       0.7846      2.00000
     19       5.3448      0.00000
     20       5.7801      0.00000
     21       6.5209      0.00000
     22       7.0509      0.00000
     23       8.8220      0.00000
     24       9.0818      0.00000

 k-point     7 :       0.0000    0.2857    0.0000
  band No.  band energies     occupation
      1     -10.9125      2.00000
      2     -10.1665      2.00000
      3      -4.6094      2.00000
      4      -4.5821      2.00000
      5      -4.5652      2.00000
      6      -4.5423      2.00000
      7      -4.3999      2.00000
      8      -4.2717      2.00000
      9      -4.2145      2.00000
     10      -4.1900      2.00000
     11      -4.1756      2.00000
     12      -3.8943      2.00000
     13      -2.8896      2.00000
     14      -1.4385      2.00000
     15      -0.7530      2.00000
     16      -0.0312      2.00000
     17       0.5228      2.00000
     18       1.2875      2.00000
     19       5.1702      0.00000
     20       5.6970      0.00000
     21       7.5335      0.00000
     22       7.6076      0.00000
     23       8.4134      0.00000
     24       8.6681      0.00000

 k-point     8 :       0.2000    0.2857    0.0000
  band No.  band energies     occupation
      1     -10.8445      2.00000
      2     -10.2404      2.00000
      3      -4.5802      2.00000
      4      -4.5738      2.00000
      5      -4.5622      2.00000
      6      -4.5424      2.00000
      7      -4.4312      2.00000
      8      -4.2928      2.00000
      9      -4.2037      2.00000
     10      -4.1955      2.00000
     11      -4.1676      2.00000
     12      -3.9675      2.00000
     13      -2.9422      2.00000
     14      -1.3155      2.00000
     15      -0.9297      2.00000
     16       0.0846      2.00000
     17       0.9138      2.00000
     18       1.1496      2.00000
     19       4.8404      0.00000
     20       5.7729      0.00000
     21       7.5265      0.00000
     22       8.1515      0.00000
     23       8.4384      0.00000
     24       8.6192      0.00000

 k-point     9 :       0.4000    0.2857    0.0000
  band No.  band energies     occupation
      1     -10.6628      2.00000
      2     -10.4317      2.00000
      3      -4.5601      2.00000
      4      -4.5491      2.00000
      5      -4.5449      2.00000
      6      -4.4928      2.00000
      7      -4.4794      2.00000
      8      -4.3497      2.00000
      9      -4.2026      2.00000
     10      -4.1806      2.00000
     11      -4.1647      2.00000
     12      -4.1480      2.00000
     13      -2.6946      2.00000
     14      -2.1073      2.00000
     15       0.0436      2.00000
     16       0.3964      2.00000
     17       0.8020      2.00000
     18       0.8649      2.00000
     19       4.9123      0.00000
     20       5.5643      0.00000
     21       7.6057      0.00000
     22       8.2218      0.00000
     23       8.6828      0.00000
     24       8.9477      0.00000

 k-point    10 :       0.0000    0.4286    0.0000
  band No.  band energies     occupation
      1     -10.5862      2.00000
      2     -10.3108      2.00000
      3      -4.5338      2.00000
      4      -4.5269      2.00000
      5      -4.5244      2.00000
      6      -4.4770      2.00000
      7      -4.4636      2.00000
      8      -4.2635      2.00000
      9      -4.2166      2.00000
     10      -4.2026      2.00000
     11      -4.1633      2.00000
     12      -4.0872      2.00000
     13      -2.6165      2.00000
     14      -1.8674      2.00000
     15      -1.1714      2.00000
     16      -0.4026      2.00000
     17       0.4534      2.00000
     18       0.9317      2.00000
     19       5.9475      0.00000
     20       6.1156      0.00000
     21       7.9699      0.00000
     22       8.0391      0.00000
     23       8.2999      0.00000
     24       8.9713      0.00000

 k-point    11 :       0.2000    0.4286    0.0000
  band No.  band energies     occupation
      1     -10.5540      2.00000
      2     -10.3302      2.00000
      3      -4.5387      2.00000
      4      -4.5333      2.00000
      5      -4.5280      2.00000
      6      -4.4843      2.00000
      7      -4.4149      2.00000
      8      -4.2392      2.00000
      9      -4.2025      2.00000
     10      -4.1888      2.00000
     11      -4.1670      2.00000
     12      -4.0415      2.00000
     13      -3.0424      2.00000
     14      -2.3812      2.00000
     15      -0.5486      2.00000
     16       0.1680      2.00000
     17       0.5068      2.00000
     18       0.8962      2.00000
     19       5.3183      0.00000
     20       5.8057      0.00000
     21       7.7226      0.00000
     22       8.1772      0.00000
     23       8.6793      0.00000
     24       9.0388      0.00000

 k-point    12 :       0.4000    0.4286    0.0000
  band No.  band energies     occupation
      1     -10.4748      2.00000
      2     -10.3887      2.00000
      3      -4.5385      2.00000
      4      -4.5371      2.00000
      5      -4.5341      2.00000
      6      -4.5195      2.00000
      7      -4.2359      2.00000
      8      -4.2030      2.00000
      9      -4.1790      2.00000
     10      -4.1786      2.00000
     11      -4.1723      2.00000
     12      -4.0075      2.00000
     13      -3.4012      2.00000
     14      -3.0627      2.00000
     15       0.3940      2.00000
     16       0.6409      2.00000
     17       0.7499      2.00000
     18       0.7911      2.00000
     19       4.6695      0.00000
     20       4.9987      0.00000
     21       8.0567      0.00000
     22       8.4208      0.00000
     23       8.4251      0.00000
     24       8.6214      0.00000

 k-point    13 :       0.0000    0.1429    0.1429
  band No.  band energies     occupation
      1     -11.0752      2.00000
      2     -10.1256      2.00000
      3      -4.6536      2.00000
      4      -4.5908      2.00000
      5      -4.5899      2.00000
      6      -4.5605      2.00000
      7      -4.3704      2.00000
      8      -4.3074      2.00000
      9      -4.2184      2.00000
     10      -4.1908      2.00000
     11      -4.1652      2.00000
     12      -3.9041      2.00000
     13      -2.8663      2.00000
     14      -0.8357      2.00000
     15      -0.8332      2.00000
     16       0.2316      2.00000
     17       1.0539      2.00000
     18       1.0587      2.00000
     19       4.7300      0.00000
     20       5.9642      0.00000
     21       6.4340      0.00000
     22       6.9847      0.00000
     23       8.6217      0.00000
     24       8.6344      0.00000

 k-point    14 :       0.2000    0.1429    0.1429
  band No.  band energies     occupation
      1     -10.9937      2.00000
      2     -10.2266      2.00000
      3      -4.6294      2.00000
      4      -4.5898      2.00000
      5      -4.5777      2.00000
      6      -4.5606      2.00000
      7      -4.4160      2.00000
      8      -4.3322      2.00000
      9      -4.2170      2.00000
     10      -4.1902      2.00000
     11      -4.1615      2.00000
     12      -4.0402      2.00000
     13      -2.5976      2.00000
     14      -0.8256      2.00000
     15      -0.3987      2.00000
     16      -0.3744      2.00000
     17       0.7743      2.00000
     18       1.2975      2.00000
     19       4.9317      0.00000
     20       6.1703      0.00000
     21       6.4777      0.00000
     22       7.3576      0.00000
     23       8.4240      0.00000
     24       8.6509      0.00000

 k-point    15 :       0.4000    0.1429    0.1429
  band No.  band energies     occupation
      1     -10.7720      2.00000
      2     -10.4797      2.00000
      3      -4.5942      2.00000
      4      -4.5733      2.00000
      5      -4.5478      2.00000
      6      -4.5354      2.00000
      7      -4.4888      2.00000
      8      -4.4217      2.00000
      9      -4.2233      2.00000
     10      -4.1995      2.00000
     11      -4.1749      2.00000
     12      -4.1537      2.00000
     13      -2.0108      2.00000
     14      -1.2470      2.00000
     15      -0.4462      2.00000
     16       0.1580      2.00000
     17       0.3493      2.00000
     18       1.0647      2.00000
     19       5.6062      0.00000
     20       6.3315      0.00000
     21       6.7238      0.00000
     22       7.3848      0.00000
     23       8.5311      0.00000
     24       8.5898      0.00000

 k-point    16 :       0.0000    0.2857    0.1429
  band No.  band energies     occupation
      1     -10.8303      2.00000
      2     -10.1467      2.00000
      3      -4.6462      2.00000
      4      -4.5390      2.00000
      5      -4.5334      2.00000
      6      -4.5193      2.00000
      7      -4.4033      2.00000
      8      -4.2529      2.00000
      9      -4.2264      2.00000
     10      -4.2075      2.00000
     11      -4.1787      2.00000
     12      -3.8720      2.00000
     13      -2.8636      2.00000
     14      -1.3213      2.00000
     15      -0.8657      2.00000
     16      -0.4733      2.00000
     17       0.4505      2.00000
     18       0.7849      2.00000
     19       5.5838      0.00000
     20       6.5012      0.00000
     21       6.5878      0.00000
     22       7.5171      0.00000
     23       9.0214      0.00000
     24       9.3039      0.00000

 k-point    17 :       0.2000    0.2857    0.1429
  band No.  band energies     occupation
      1     -10.7671      2.00000
      2     -10.2134      2.00000
      3      -4.6117      2.00000
      4      -4.5384      2.00000
      5      -4.5269      2.00000
      6      -4.5180      2.00000
      7      -4.4400      2.00000
      8      -4.2677      2.00000
      9      -4.2180      2.00000
     10      -4.1897      2.00000
     11      -4.1792      2.00000
     12      -3.9489      2.00000
     13      -2.8829      2.00000
     14      -1.3495      2.00000
     15      -1.0524      2.00000
     16      -0.1845      2.00000
     17       0.5582      2.00000
     18       0.7878      2.00000
     19       5.4175      0.00000
     20       6.5217      0.00000
     21       7.2099      0.00000
     22       7.3412      0.00000
     23       8.7859      0.00000
     24       8.8697      0.00000

 k-point    18 :       0.4000    0.2857    0.1429
  band No.  band energies     occupation
      1     -10.5991      2.00000
      2     -10.3873      2.00000
      3      -4.5404      2.00000
      4      -4.5355      2.00000
      5      -4.5242      2.00000
      6      -4.4953      2.00000
      7      -4.4634      2.00000
      8      -4.3195      2.00000
      9      -4.2134      2.00000
     10      -4.1905      2.00000
     11      -4.1657      2.00000
     12      -4.1230      2.00000
     13      -2.6369      2.00000
     14      -2.0791      2.00000
     15      -0.5521      2.00000
     16       0.0291      2.00000
     17       0.4806      2.00000
     18       0.9390      2.00000
     19       5.5178      0.00000
     20       6.0512      0.00000
     21       7.6106      0.00000
     22       8.1080      0.00000
     23       8.6629      0.00000
     24       8.7495      0.00000

 k-point    19 :       0.0000    0.4286    0.1429
  band No.  band energies     occupation
      1     -10.5209      2.00000
      2     -10.2684      2.00000
      3      -4.5751      2.00000
      4      -4.5114      2.00000
      5      -4.4990      2.00000
      6      -4.4641      2.00000
      7      -4.4396      2.00000
      8      -4.2933      2.00000
      9      -4.2036      2.00000
     10      -4.1884      2.00000
     11      -4.1605      2.00000
     12      -4.0491      2.00000
     13      -2.6141      2.00000
     14      -1.9095      2.00000
     15      -1.0913      2.00000
     16      -0.3769      2.00000
     17       0.0093      2.00000
     18       0.4669      2.00000
     19       6.2550      0.00000
     20       6.7066      0.00000
     21       6.8117      0.00000
     22       7.3527      0.00000
     23       8.3427      0.00000
     24       8.5041      0.00000

 k-point    20 :       0.2000    0.4286    0.1429
  band No.  band energies     occupation
      1     -10.4915      2.00000
      2     -10.2865      2.00000
      3      -4.5600      2.00000
      4      -4.5223      2.00000
      5      -4.4967      2.00000
      6      -4.4695      2.00000
      7      -4.4109      2.00000
      8      -4.2697      2.00000
      9      -4.1824      2.00000
     10      -4.1817      2.00000
     11      -4.1647      2.00000
     12      -4.0073      2.00000
     13      -2.9641      2.00000
     14      -2.3448      2.00000
     15      -0.6905      2.00000
     16       0.0204      2.00000
     17       0.1613      2.00000
     18       0.4334      2.00000
     19       5.6763      0.00000
     20       6.1721      0.00000
     21       7.4088      0.00000
     22       7.4521      0.00000
     23       8.8525      0.00000
     24       9.0122      0.00000

 k-point    21 :       0.4000    0.4286    0.1429
  band No.  band energies     occupation
      1     -10.4191      2.00000
      2     -10.3403      2.00000
      3      -4.5352      2.00000
      4      -4.5292      2.00000
      5      -4.5117      2.00000
      6      -4.4971      2.00000
      7      -4.2784      2.00000
      8      -4.2234      2.00000
      9      -4.1815      2.00000
     10      -4.1788      2.00000
     11      -4.1238      2.00000
     12      -3.9871      2.00000
     13      -3.2728      2.00000
     14      -2.9684      2.00000
     15      -0.1772      2.00000
     16       0.1502      2.00000
     17       0.5122      2.00000
     18       0.5770      2.00000
     19       5.3442      0.00000
     20       5.5278      0.00000
     21       7.7452      0.00000
     22       7.8487      0.00000
     23       8.8732      0.00000
     24       8.9976      0.00000

 k-point    22 :       0.0000    0.2857    0.2857
  band No.  band energies     occupation
      1     -10.6154      2.00000
      2     -10.1228      2.00000
      3      -4.6644      2.00000
      4      -4.5166      2.00000
      5      -4.4717      2.00000
      6      -4.4703      2.00000
      7      -4.3863      2.00000
      8      -4.2648      2.00000
      9      -4.2287      2.00000
     10      -4.2115      2.00000
     11      -4.1632      2.00000
     12      -3.8508      2.00000
     13      -2.8558      2.00000
     14      -1.3896      2.00000
     15      -1.0020      2.00000
     16      -0.9941      2.00000
     17       0.1686      2.00000
     18       0.1721      2.00000
     19       5.7157      0.00000
     20       5.8846      0.00000
     21       6.8970      0.00000
     22       7.1462      0.00000
     23       9.4412      0.00000
     24       9.8233      0.00000

 k-point    23 :       0.2000    0.2857    0.2857
  band No.  band energies     occupation
      1     -10.5675      2.00000
      2     -10.1683      2.00000
      3      -4.6183      2.00000
      4      -4.5195      2.00000
      5      -4.4864      2.00000
      6      -4.4581      2.00000
      7      -4.4154      2.00000
      8      -4.2456      2.00000
      9      -4.2136      2.00000
     10      -4.2070      2.00000
     11      -4.1629      2.00000
     12      -3.8980      2.00000
     13      -2.8540      2.00000
     14      -1.6818      2.00000
     15      -1.3686      2.00000
     16      -0.2533      2.00000
     17      -0.1258      2.00000
     18       0.3503      2.00000
     19       6.0990      0.00000
     20       6.2923      0.00000
     21       6.3229      0.00000
     22       7.6636      0.00000
     23       8.9568      0.00000
     24       9.2794      0.00000

 k-point    24 :       0.4000    0.2857    0.2857
  band No.  band energies     occupation
      1     -10.4424      2.00000
      2     -10.2895      2.00000
      3      -4.5230      2.00000
      4      -4.5181      2.00000
      5      -4.5105      2.00000
      6      -4.4581      2.00000
      7      -4.3850      2.00000
      8      -4.2511      2.00000
      9      -4.2069      2.00000
     10      -4.2035      2.00000
     11      -4.1439      2.00000
     12      -4.0671      2.00000
     13      -2.6651      2.00000
     14      -2.2200      2.00000
     15      -1.2192      2.00000
     16      -0.7223      2.00000
     17       0.3902      2.00000
     18       0.5574      2.00000
     19       6.0860      0.00000
     20       6.3056      0.00000
     21       7.6155      0.00000
     22       7.9623      0.00000
     23       8.2156      0.00000
     24       9.2860      0.00000

 k-point    25 :       0.0000    0.4286    0.2857
  band No.  band energies     occupation
      1     -10.3591      2.00000
      2     -10.1769      2.00000
      3      -4.6258      2.00000
      4      -4.5576      2.00000
      5      -4.4188      2.00000
      6      -4.3963      2.00000
      7      -4.3953      2.00000
      8      -4.3194      2.00000
      9      -4.1661      2.00000
     10      -4.1646      2.00000
     11      -4.1515      2.00000
     12      -3.9823      2.00000
     13      -2.7134      2.00000
     14      -2.1654      2.00000
     15      -0.8784      2.00000
     16      -0.5676      2.00000
     17      -0.3520      2.00000
     18      -0.1743      2.00000
     19       5.5730      0.00000
     20       5.9747      0.00000
     21       6.0616      0.00000
     22       6.4477      0.00000
     23       9.7245      0.00000
     24      10.0153      0.00000

 k-point    26 :       0.2000    0.4286    0.2857
  band No.  band energies     occupation
      1     -10.3378      2.00000
      2     -10.1901      2.00000
      3      -4.5866      2.00000
      4      -4.5483      2.00000
      5      -4.4283      2.00000
      6      -4.4037      2.00000
      7      -4.3856      2.00000
      8      -4.3045      2.00000
      9      -4.1691      2.00000
     10      -4.1586      2.00000
     11      -4.1274      2.00000
     12      -3.9465      2.00000
     13      -2.8443      2.00000
     14      -2.3699      2.00000
     15      -1.1278      2.00000
     16      -0.5260      2.00000
     17      -0.1402      2.00000
     18      -0.0528      2.00000
     19       5.6752      0.00000
     20       5.6987      0.00000
     21       6.6381      0.00000
     22       7.2334      0.00000
     23       9.4925      0.00000
     24       9.8662      0.00000

 k-point    27 :       0.4000    0.4286    0.2857
  band No.  band energies     occupation
      1     -10.2858      2.00000
      2     -10.2292      2.00000
      3      -4.5255      2.00000
      4      -4.5212      2.00000
      5      -4.4649      2.00000
      6      -4.4423      2.00000
      7      -4.2958      2.00000
      8      -4.2496      2.00000
      9      -4.1902      2.00000
     10      -4.1823      2.00000
     11      -4.0422      2.00000
     12      -3.9380      2.00000
     13      -2.9884      2.00000
     14      -2.7702      2.00000
     15      -1.0832      2.00000
     16      -0.8057      2.00000
     17       0.0678      2.00000
     18       0.1211      2.00000
     19       6.0141      0.00000
     20       6.3264      0.00000
     21       7.3306      0.00000
     22       7.6740      0.00000
     23       8.7191      0.00000
     24       9.4447      0.00000

 k-point    28 :       0.0000    0.4286    0.4286
  band No.  band energies     occupation
      1     -10.1936      2.00000
      2     -10.1262      2.00000
      3      -4.6383      2.00000
      4      -4.6106      2.00000
      5      -4.3532      2.00000
      6      -4.3515      2.00000
      7      -4.3454      2.00000
      8      -4.3281      2.00000
      9      -4.1450      2.00000
     10      -4.1409      2.00000
     11      -4.0770      2.00000
     12      -3.9688      2.00000
     13      -2.8628      2.00000
     14      -2.6319      2.00000
     15      -0.6298      2.00000
     16      -0.6283      2.00000
     17      -0.4450      2.00000
     18      -0.4429      2.00000
     19       4.9842      0.00000
     20       5.1788      0.00000
     21       5.5768      0.00000
     22       5.7554      0.00000
     23      11.5864      0.00000
     24      11.6369      0.00000

 k-point    29 :       0.2000    0.4286    0.4286
  band No.  band energies     occupation
      1     -10.1848      2.00000
      2     -10.1302      2.00000
      3      -4.5930      2.00000
      4      -4.5779      2.00000
      5      -4.3797      2.00000
      6      -4.3606      2.00000
      7      -4.3372      2.00000
      8      -4.3190      2.00000
      9      -4.1569      2.00000
     10      -4.1529      2.00000
     11      -4.0247      2.00000
     12      -3.9217      2.00000
     13      -2.8682      2.00000
     14      -2.6714      2.00000
     15      -1.0995      2.00000
     16      -0.6851      2.00000
     17      -0.5253      2.00000
     18      -0.3632      2.00000
     19       5.3595      0.00000
     20       5.5452      0.00000
     21       6.0387      0.00000
     22       6.4504      0.00000
     23      10.4558      0.00000
     24      11.1024      0.00000

 k-point    30 :       0.4000    0.4286    0.4286
  band No.  band energies     occupation
      1     -10.1639      2.00000
      2     -10.1431      2.00000
      3      -4.5216      2.00000
      4      -4.5172      2.00000
      5      -4.4140      2.00000
      6      -4.4000      2.00000
      7      -4.2811      2.00000
      8      -4.2627      2.00000
      9      -4.2015      2.00000
[...]

 electrical conductivity sigma (Mega S m-1) (frequency dependency in vasprun.xml)
  --------------------------------------------------------------------------------------
       0.000       0.000       0.000
       0.000       0.000       0.000
       0.000       0.000       0.000

 plasma frequency squared (from intraband transitions)
  --------------------------------------------------------------------------------------


 plasma frequency squared (from interband transitions, int dw w eps(2)(w)
  --------------------------------------------------------------------------------------
     186.693       0.000      -0.000
      -0.000     186.738       0.000
      -0.000       0.000     186.738
  --------------------------------------------------------------------------------------
 plasma frequency squared  (valence only):     596.476

  frequency dependent IMAGINARY DIELECTRIC FUNCTION (independent particle, no local field effects)
     E(ev)      X         Y         Z        XY        YZ        ZX
  --------------------------------------------------------------------------------------
    0.000000    0.000000    0.000000    0.000000    0.000000    0.000000    0.000000
    0.275056    0.015126    0.015868    0.015868   -0.000000    0.000000    0.000000
    0.550111    0.032351    0.033969    0.033969   -0.000000    0.000000    0.000000
    0.825167    0.055387    0.058233    0.058233   -0.000000    0.000000    0.000000
    1.100223    0.094848    0.099828    0.099828   -0.000000    0.000000    0.000000
    1.375278    0.203106    0.213931    0.213931    0.000000    0.000000    0.000000
    1.650334    1.093506    1.164356    1.164356    0.000000    0.000000    0.000000
    1.925390    0.703689    0.708175    0.708175    0.000000    0.000000    0.000000
    2.200446    0.297765    0.367681    0.367681    0.000000    0.000000    0.000000
    2.475501    0.397755    0.874997    0.874997    0.000000    0.000000    0.000000
    2.750557    1.445756    1.642139    1.642139    0.000000    0.000000    0.000000
    3.025613    2.633393    2.074603    2.074603    0.000000    0.000000    0.000000
    3.300668    1.607405    2.165417    2.165417    0.000000    0.000000    0.000000
    3.575724    3.673071    3.169383    3.169383   -0.000000    0.000000    0.000000
    3.850780    5.422751    6.128437    6.128437   -0.000000    0.000000    0.000000
    4.125835    3.522268    5.017499    5.017499    0.000000    0.000000    0.000000
    4.400891    3.494147    6.002536    6.002536   -0.000000    0.000000    0.000000
    4.675947    9.890658    6.051948    6.051948   -0.000000    0.000000    0.000000
    4.951002    5.874668    5.402468    5.402468    0.000000    0.000000    0.000000
    5.226058    5.647596    8.000301    8.000301    0.000000    0.000000   -0.000000
    5.501114    7.558386    9.735278    9.735278    0.000000    0.000000    0.000000
    5.776170   19.503195   15.239967   15.239967   -0.000000    0.000000    0.000000
    6.051225    8.576444    9.306696    9.306696   -0.000000    0.000000   -0.000000
    6.326281    8.770703    7.695152    7.695152   -0.000000    0.000000   -0.000000
    6.601337    9.152087    6.906756    6.906756   -0.000000    0.000000    0.000000
    6.876392    5.929059    6.779687    6.779687   -0.000000    0.000000   -0.000000
    7.151448    9.150991    9.164267    9.164267   -0.000000    0.000000   -0.000000
    7.426504    5.957100    8.235141    8.235141    0.000000    0.000000   -0.000000
    7.701559    7.765776    6.879215    6.879215   -0.000000    0.000000   -0.000000
    7.976615    5.904253    5.821184    5.821184   -0.000000    0.000000   -0.000000
    8.251671    6.219619    5.426460    5.426460   -0.000000    0.000000   -0.000000
    8.526726    3.888665    3.814013    3.814013   -0.000000    0.000000    0.000000
    8.801782    3.380158    3.520864    3.520864   -0.000000    0.000000    0.000000
    9.076838    2.367629    2.332657    2.332657   -0.000000    0.000000   -0.000000
    9.351893    1.936940    1.716939    1.716939    0.000000    0.000000   -0.000000
    9.626949    1.340292    1.453003    1.453003    0.000000    0.000000   -0.000000
    9.902005    1.539626    1.997145    1.997145    0.000000    0.000000    0.000000
   10.177061    1.477085    1.588676    1.588676    0.000000    0.000000    0.000000
   10.452116    1.173308    1.186490    1.186490   -0.000000    0.000000    0.000000
   10.727172    1.024591    1.039570    1.039570   -0.000000    0.000000   -0.000000
   11.002228    0.640198    0.817709    0.817709    0.000000    0.000000   -0.000000
   11.277283    0.459613    0.428593    0.428593   -0.000000    0.000000   -0.000000
   11.552339    0.505237    0.462723    0.462723   -0.000000    0.000000   -0.000000
   11.827395    0.616360    0.541760    0.541760   -0.000000    0.000000   -0.000000
   12.102450    0.488153    0.481193    0.481193    0.000000    0.000000   -0.000000
   12.377506    0.378395    0.429204    0.429204    0.000000    0.000000    0.000000
   12.652562    0.365040    0.404949    0.404949    0.000000    0.000000   -0.000000
   12.927617    0.376920    0.393314    0.393314    0.000000    0.000000   -0.000000
   13.202673    0.409840    0.375859    0.375859   -0.000000    0.000000    0.000000
   13.477729    0.256022    0.248861    0.248861   -0.000000    0.000000    0.000000
   13.752785    0.139209    0.165755    0.165755   -0.000000    0.000000    0.000000
   14.027840    0.136312    0.111566    0.111566   -0.000000    0.000000   -0.000000
   14.302896    0.066568    0.074103    0.074103   -0.000000    0.000000    0.000000
   14.577952    0.044458    0.058010    0.058010   -0.000000    0.000000    0.000000
   14.853007    0.036664    0.040368    0.040368   -0.000000    0.000000   -0.000000
   15.128063    0.033571    0.036552    0.036552   -0.000000    0.000000   -0.000000
   15.403119    0.039065    0.034357    0.034357   -0.000000    0.000000   -0.000000
   15.678174    0.042733    0.039904    0.039904   -0.000000    0.000000   -0.000000
   15.953230    0.051345    0.049478    0.049478   -0.000000    0.000000   -0.000000
   16.228286    0.043545    0.052480    0.052480   -0.000000    0.000000   -0.000000
   16.503341    0.046597    0.043997    0.043997   -0.000000    0.000000    0.000000
   16.778397    0.036722    0.031600    0.031600   -0.000000    0.000000    0.000000
   17.053453    0.025126    0.022866    0.022866   -0.000000    0.000000    0.000000
   17.328509    0.019198    0.020534    0.020534   -0.000000    0.000000    0.000000
   17.603564    0.018948    0.020422    0.020422   -0.000000    0.000000    0.000000
   17.878620    0.021997    0.020315    0.020315   -0.000000    0.000000    0.000000
   18.153676    0.018677    0.018365    0.018365   -0.000000    0.000000    0.000000
   18.428731    0.014847    0.015199    0.015199    0.000000    0.000000    0.000000
   18.703787    0.016766    0.017285    0.017285   -0.000000    0.000000    0.000000
   18.978843    0.018175    0.020247    0.020247   -0.000000    0.000000    0.000000
   19.253898    0.021695    0.023667    0.023667    0.000000    0.000000    0.000000
   19.528954    0.020311    0.019063    0.019063   -0.000000    0.000000    0.000000
   19.804010    0.013422    0.014159    0.014159   -0.000000    0.000000    0.000000
   20.079065    0.010763    0.010394    0.010394   -0.000000    0.000000    0.000000
   20.354121    0.007983    0.007646    0.007646   -0.000000    0.000000    0.000000
   20.629177    0.006402    0.007414    0.007414   -0.000000    0.000000   -0.000000
   20.904232    0.005846    0.006125    0.006125   -0.000000    0.000000   -0.000000
   21.179288    0.005630    0.006881    0.006881   -0.000000    0.000000   -0.000000
   21.454344    0.005212    0.005639    0.005639   -0.000000    0.000000   -0.000000
   21.729400    0.005066    0.006207    0.006207   -0.000000    0.000000   -0.000000
   22.004455    0.004668    0.004989    0.004989   -0.000000    0.000000   -0.000000
   22.279511    0.004434    0.004519    0.004519   -0.000000    0.000000   -0.000000
   22.554567    0.004229    0.004272    0.004272   -0.000000    0.000000   -0.000000
   22.829622    0.004040    0.004068    0.004068   -0.000000    0.000000   -0.000000
   23.104678    0.003865    0.003885    0.003885   -0.000000    0.000000   -0.000000
   23.379734    0.003701    0.003717    0.003717   -0.000000    0.000000   -0.000000
   23.654789    0.003548    0.003561    0.003561   -0.000000    0.000000   -0.000000
   23.929845    0.003404    0.003415    0.003415   -0.000000    0.000000   -0.000000
   24.204901    0.003268    0.003278    0.003278   -0.000000    0.000000   -0.000000
   24.479956    0.003140    0.003148    0.003148   -0.000000    0.000000   -0.000000
   24.755012    0.003020    0.003027    0.003027   -0.000000    0.000000   -0.000000
   25.030068    0.002905    0.002912    0.002912   -0.000000    0.000000   -0.000000
   25.305124    0.002797    0.002803    0.002803   -0.000000    0.000000   -0.000000
   25.580179    0.002694    0.002700    0.002700   -0.000000    0.000000   -0.000000
   25.855235    0.002597    0.002602    0.002602   -0.000000    0.000000   -0.000000
   26.130291    0.002504    0.002509    0.002509   -0.000000    0.000000   -0.000000
   26.405346    0.002416    0.002420    0.002420   -0.000000    0.000000   -0.000000
   26.680402    0.002333    0.002336    0.002336   -0.000000    0.000000   -0.000000
   26.955458    0.002253    0.002256    0.002256   -0.000000    0.000000   -0.000000
   27.230513    0.002177    0.002180    0.002180   -0.000000    0.000000   -0.000000

  frequency dependent      REAL DIELECTRIC FUNCTION (independent particle, no local field effects)
     E(ev)      X         Y         Z        XY        YZ        ZX
  --------------------------------------------------------------------------------------
    0.000000    6.142930    6.205942    6.205942   -0.000000    0.000000    0.000000
    0.275056    6.163402    6.227413    6.227413   -0.000000    0.000000    0.000000
    0.550111    6.227483    6.294664    6.294664   -0.000000    0.000000    0.000000
    0.825167    6.345003    6.418138    6.418138   -0.000000    0.000000    0.000000
    1.100223    6.541850    6.625225    6.625225   -0.000000    0.000000    0.000000
    1.375278    6.900179    7.002402    7.002402   -0.000000    0.000000    0.000000
    1.650334    7.658585    7.778416    7.778416   -0.000000    0.000000    0.000000
    1.925390    5.905628    6.079470    6.079470   -0.000000    0.000000    0.000000
    2.200446    6.817976    7.091908    7.091908   -0.000000    0.000000    0.000000
    2.475501    7.673310    8.280497    8.280497   -0.000000    0.000000    0.000000
    2.750557    9.074974    7.556603    7.556603   -0.000000    0.000000    0.000000
    3.025613    8.681124    8.603112    8.603112    0.000000    0.000000    0.000000
    3.300668    7.416360    6.893146    6.893146   -0.000000    0.000000    0.000000
    3.575724   10.199520   10.174847   10.174847   -0.000000    0.000000    0.000000
    3.850780    9.785626    8.710171    8.710171    0.000000    0.000000    0.000000
    4.125835    5.441438    6.663706    6.663706   -0.000000    0.000000    0.000000
    4.400891   10.827827    8.142176    8.142176   -0.000000    0.000000    0.000000
    4.675947    5.607265    5.582329    5.582329    0.000000    0.000000   -0.000000
    4.951002    5.718484    7.514221    7.514221    0.000000    0.000000   -0.000000
    5.226058    6.200107    7.661270    7.661270   -0.000000    0.000000   -0.000000
    5.501114   10.949296   10.283900   10.283900   -0.000000    0.000000    0.000000
    5.776170    3.319876   -0.113036   -0.113036   -0.000000    0.000000   -0.000000
    6.051225   -2.503554   -1.717600   -1.717600   -0.000000    0.000000   -0.000000
    6.326281    0.156600    0.061297    0.061297   -0.000000    0.000000   -0.000000
    6.601337   -0.455694    0.801737    0.801737    0.000000    0.000000   -0.000000
    6.876392    0.377368    1.031812    1.031812    0.000000    0.000000   -0.000000
    7.151448   -0.808822    1.054427    1.054427    0.000000    0.000000   -0.000000
    7.426504   -1.553761   -2.837729   -2.837729   -0.000000    0.000000   -0.000000
    7.701559   -3.277699   -3.733978   -3.733978   -0.000000    0.000000   -0.000000
    7.976615   -2.030817   -2.557172   -2.557172    0.000000    0.000000   -0.000000
    8.251671   -2.761698   -3.894511   -3.894511    0.000000    0.000000    0.000000
    8.526726   -4.746502   -3.990722   -3.990722    0.000000    0.000000    0.000000
    8.801782   -3.934001   -3.935550   -3.935550    0.000000    0.000000   -0.000000
    9.076838   -3.347906   -3.417952   -3.417952    0.000000    0.000000   -0.000000
    9.351893   -2.844893   -2.744965   -2.744965    0.000000    0.000000    0.000000
    9.626949   -2.640854   -2.305566   -2.305566    0.000000    0.000000    0.000000
    9.902005   -1.940611   -1.880421   -1.880421    0.000000    0.000000    0.000000
   10.177061   -2.346758   -2.380758   -2.380758    0.000000    0.000000    0.000000
   10.452116   -1.898878   -2.054046   -2.054046    0.000000    0.000000   -0.000000
   10.727172   -1.973073   -1.914339   -1.914339    0.000000    0.000000    0.000000
   11.002228   -1.810004   -1.818016   -1.818016    0.000000    0.000000    0.000000
   11.277283   -1.403419   -1.484448   -1.484448    0.000000    0.000000    0.000000
   11.552339   -1.135649   -1.197210   -1.197210    0.000000    0.000000    0.000000
   11.827395   -0.994052   -0.999562   -0.999562    0.000000    0.000000    0.000000
   12.102450   -1.029389   -0.934977   -0.934977    0.000000    0.000000    0.000000
   12.377506   -0.880914   -0.862782   -0.862782    0.000000    0.000000    0.000000
   12.652562   -0.726201   -0.744691   -0.744691    0.000000    0.000000    0.000000
   12.927617   -0.658296   -0.724914   -0.724914    0.000000    0.000000    0.000000
   13.202673   -0.732285   -0.688084   -0.688084    0.000000    0.000000    0.000000
   13.477729   -0.643699   -0.648922   -0.648922    0.000000    0.000000    0.000000
   13.752785   -0.545207   -0.568110   -0.568110    0.000000    0.000000    0.000000
   14.027840   -0.451869   -0.443714   -0.443714    0.000000    0.000000    0.000000
   14.302896   -0.364246   -0.350972   -0.350972    0.000000    0.000000    0.000000
   14.577952   -0.266687   -0.264746   -0.264746    0.000000    0.000000    0.000000
   14.853007   -0.181332   -0.187748   -0.187748    0.000000    0.000000    0.000000
   15.128063   -0.106912   -0.116788   -0.116788    0.000000    0.000000    0.000000
   15.403119   -0.045093   -0.048467   -0.048467    0.000000    0.000000    0.000000
   15.678174    0.006938    0.011203    0.011203    0.000000    0.000000    0.000000
   15.953230    0.050139    0.045464    0.045464    0.000000    0.000000    0.000000
   16.228286    0.085338    0.082900    0.082900    0.000000    0.000000    0.000000
   16.503341    0.117714    0.112443    0.112443    0.000000    0.000000    0.000000
   16.778397    0.145336    0.145616    0.145616    0.000000    0.000000    0.000000
   17.053453    0.182948    0.183645    0.183645    0.000000    0.000000    0.000000
   17.328509    0.221075    0.223060    0.223060    0.000000    0.000000    0.000000
   17.603564    0.256641    0.253800    0.253800    0.000000    0.000000    0.000000
   17.878620    0.285531    0.286295    0.286295    0.000000    0.000000    0.000000
   18.153676    0.306690    0.306323    0.306323    0.000000    0.000000    0.000000
   18.428731    0.336033    0.334049    0.334049    0.000000    0.000000    0.000000
   18.703787    0.362534    0.360936    0.360936    0.000000    0.000000    0.000000
   18.978843    0.383669    0.383998    0.383998    0.000000    0.000000    0.000000
   19.253898    0.404568    0.403658    0.403658    0.000000    0.000000    0.000000
   19.528954    0.413368    0.415389    0.415389    0.000000    0.000000    0.000000
   19.804010    0.433289    0.431756    0.431756    0.000000    0.000000    0.000000
   20.079065    0.450356    0.450261    0.450261    0.000000    0.000000    0.000000
   20.354121    0.469950    0.469660    0.469660    0.000000    0.000000    0.000000
   20.629177    0.487430    0.487501    0.487501    0.000000    0.000000    0.000000
   20.904232    0.504106    0.503928    0.503928    0.000000    0.000000    0.000000
   21.179288    0.519625    0.519905    0.519905    0.000000    0.000000    0.000000
   21.454344    0.534048    0.533404    0.533404    0.000000    0.000000    0.000000
   21.729400    0.547784    0.547321    0.547321    0.000000    0.000000    0.000000
   22.004455    0.560872    0.559689    0.559689    0.000000    0.000000    0.000000
   22.279511    0.573373    0.572550    0.572550    0.000000    0.000000    0.000000
   22.554567    0.585280    0.584615    0.584615    0.000000    0.000000    0.000000
   22.829622    0.596647    0.596076    0.596076    0.000000    0.000000    0.000000
   23.104678    0.607515    0.607009    0.607009    0.000000    0.000000    0.000000
   23.379734    0.617917    0.617460    0.617460    0.000000    0.000000    0.000000
   23.654789    0.627883    0.627465    0.627465    0.000000    0.000000    0.000000
   23.929845    0.637441    0.637055    0.637055    0.000000    0.000000    0.000000
   24.204901    0.646615    0.646256    0.646256    0.000000    0.000000    0.000000
   24.479956    0.655426    0.655091    0.655091    0.000000    0.000000    0.000000
   24.755012    0.663895    0.663581    0.663581    0.000000    0.000000    0.000000
   25.030068    0.672041    0.671746    0.671746    0.000000    0.000000    0.000000
   25.305124    0.679881    0.679603    0.679603    0.000000    0.000000    0.000000
   25.580179    0.687431    0.687168    0.687168    0.000000    0.000000    0.000000
   25.855235    0.694706    0.694457    0.694457    0.000000    0.000000    0.000000
   26.130291    0.701721    0.701483    0.701483    0.000000    0.000000    0.000000
   26.405346    0.708486    0.708261    0.708261    0.000000    0.000000    0.000000
   26.680402    0.715017    0.714801    0.714801    0.000000    0.000000    0.000000
   26.955458    0.721322    0.721117    0.721117    0.000000    0.000000    0.000000
   27.230513    0.727413    0.727217    0.727217    0.000000    0.000000    0.000000

 The outermost node in the dielectric function lies at epsilon=  15.7


--------------------------------------------------------------------------------------------------------


    OPTICS:  cpu time    0.3963: real time    1.1307
    4ORBIT:  cpu time    0.0000: real time    0.0000



 total charge

# of ion     s       p       d       tot
----------------------------------------
  1        0.512   0.438   9.793  10.743
  2        0.512   0.438   9.793  10.743
  3        1.312   2.384   0.000   3.695
  4        1.312   2.384   0.000   3.695
------------------------------------------------
tot        3.646   5.644  19.586  28.876


 total amount of memory used by VASP on root node    53810. kBytes
========================================================================

   base      :      30000. kBytes
   nonl-proj :      18487. kBytes
   fftplans  :        207. kBytes
   grid      :        873. kBytes
   one-center:         62. kBytes
   wavefun   :       4181. kBytes



 General timing and accounting informations for this job:
 ========================================================

                  Total CPU time used (sec):        7.983
                            User time (sec):        7.040
                          System time (sec):        0.943
                         Elapsed time (sec):       24.250

                   Maximum memory used (kb):    80232448.
                   Average memory used (kb):           0.

                          Minor page faults:        20210
                          Major page faults:          259
                 Voluntary context switches:           11
