 vasp.5.4.1 24Jun15 (build Sep 15 2015 10:29:54) complex                        
  
 executed on           IFC91_ompi date 2017.08.22  11:20:39
 running on   24 total cores
 distrk:  each k-point on    6 cores,    4 groups
 distr:  one band on NCORES_PER_BAND=   1 cores,    6 groups


--------------------------------------------------------------------------------------------------------


 INCAR:
 POTCAR:    PAW_PBE Zn 06Sep2000                  
 POTCAR:    PAW_PBE Se 06Sep2000                  

 ----------------------------------------------------------------------------- 
|                                                                             |
|           W    W    AA    RRRRR   N    N  II  N    N   GGGG   !!!           |
|           W    W   A  A   R    R  NN   N  II  NN   N  G    G  !!!           |
|           W    W  A    A  R    R  N N  N  II  N N  N  G       !!!           |
|           W WW W  AAAAAA  RRRRR   N  N N  II  N  N N  G  GGG   !            |
|           WW  WW  A    A  R   R   N   NN  II  N   NN  G    G                |
|           W    W  A    A  R    R  N    N  II  N    N   GGGG   !!!           |
|                                                                             |
|      For optimal performance we recommend to set                            |
|        NCORE= 4 - approx SQRT( number of cores)                             |
|      NCORE specifies how many cores store one orbital (NPAR=cpu/NCORE).     |
|      This setting can  greatly improve the performance of VASP for DFT.     |
|      The default, NPAR=number of cores might be grossly inefficient         |
|      on modern multi-core architectures or massively parallel machines.     |
|      Do your own testing !!!!                                               |
|      Unfortunately you need to use the default for GW and RPA calculations. |
|      (for HF NCORE is supported but not extensively tested yet)             |
|                                                                             |
 ----------------------------------------------------------------------------- 


 ----------------------------------------------------------------------------- 
|                                                                             |
|           W    W    AA    RRRRR   N    N  II  N    N   GGGG   !!!           |
|           W    W   A  A   R    R  NN   N  II  NN   N  G    G  !!!           |
|           W    W  A    A  R    R  N N  N  II  N N  N  G       !!!           |
|           W WW W  AAAAAA  RRRRR   N  N N  II  N  N N  G  GGG   !            |
|           WW  WW  A    A  R   R   N   NN  II  N   NN  G    G                |
|           W    W  A    A  R    R  N    N  II  N    N   GGGG   !!!           |
|                                                                             |
|      You have enabled k-point parallelism (KPAR>1).                         |
|      This developmental code was originally  written by Paul Kent at ORNL,  |
|      and carefully double checked in Vienna.                                |
|      GW as well as linear response parallelism added by Martijn Marsman     |
|      and Georg Kresse.                                                      |
|      Carefully verify results versus KPAR=1.                                |
|      Report problems to Paul Kent and Vienna.                               |
|                                                                             |
 ----------------------------------------------------------------------------- 

 POTCAR:    PAW_PBE Zn 06Sep2000                  
   VRHFIN =Zn: d10 p2                                                           
   LEXCH  = PE                                                                  
   EATOM  =  1748.8345 eV,  128.5357 Ry                                         
                                                                                
   TITEL  = PAW_PBE Zn 06Sep2000                                                
   LULTRA =        F    use ultrasoft PP ?                                      
   IUNSCR =        1    unscreen: 0-lin 1-nonlin 2-no                           
   RPACOR =    2.000    partial core radius                                     
   POMASS =   65.390; ZVAL   =   12.000    mass and valenz                      
   RCORE  =    2.300    outmost cutoff radius                                   
   RWIGS  =    2.400; RWIGS  =    1.270    wigner-seitz radius (au A)           
   ENMAX  =  276.723; ENMIN  =  207.542 eV                                      
   RCLOC  =    1.828    cutoff for local pot                                    
   LCOR   =        T    correct aug charges                                     
   LPAW   =        T    paw PP                                                  
   EAUG   =  575.892                                                            
   DEXC   =    0.000                                                            
   RMAX   =    2.347    core radius for proj-oper                               
   RAUG   =    1.300    factor for augmentation sphere                          
   RDEP   =    2.324    radius for radial grids                                 
   RDEPT  =    1.788    core radius for aug-charge                              
                                                                                
   Atomic configuration                                                         
    9 entries                                                                   
     n  l   j            E        occ.                                          
     1  0  0.50     -9524.6913   2.0000                                         
     2  0  0.50     -1158.1882   2.0000                                         
     2  1  1.50     -1003.8506   6.0000                                         
     3  0  0.50      -129.2194   2.0000                                         
     3  1  1.50       -83.3890   6.0000                                         
     3  2  2.50       -10.1410  10.0000                                         
     4  0  0.50        -5.9785   2.0000                                         
     4  1  0.50        -4.0817   0.0000                                         
     4  3  2.50        -1.3606   0.0000                                         
   Description                                                                  
     l       E           TYP  RCUT    TYP  RCUT                                 
     2    -10.1410010     23  2.300                                             
     2    -11.5015836     23  2.300                                             
     0     -5.9785163     23  2.300                                             
     0      1.1858015     23  2.300                                             
     1     -2.7211652     23  2.300                                             
     1     13.2444212     23  2.300                                             
  local pseudopotential read in
  partial core-charges read in
  partial kinetic energy density read in
  atomic valenz-charges read in
  non local Contribution for L=           2  read in
    real space projection operators read in
  non local Contribution for L=           2  read in
    real space projection operators read in
  non local Contribution for L=           0  read in
    real space projection operators read in
  non local Contribution for L=           0  read in
    real space projection operators read in
  non local Contribution for L=           1  read in
    real space projection operators read in
  non local Contribution for L=           1  read in
    real space projection operators read in
    PAW grid and wavefunctions read in
 
   number of l-projection  operators is LMAX  =           6
   number of lm-projection operators is LMMAX =          18
 
 POTCAR:    PAW_PBE Se 06Sep2000                  
   VRHFIN =Se: s2p4                                                             
   LEXCH  = PE                                                                  
   EATOM  =   257.1286 eV,   18.8984 Ry                                         
                                                                                
   TITEL  = PAW_PBE Se 06Sep2000                                                
   LULTRA =        F    use ultrasoft PP ?                                      
   IUNSCR =        1    unscreen: 0-lin 1-nonlin 2-no                           
   RPACOR =    1.900    partial core radius                                     
   POMASS =   78.960; ZVAL   =    6.000    mass and valenz                      
   RCORE  =    2.100    outmost cutoff radius                                   
   RWIGS  =    2.200; RWIGS  =    1.164    wigner-seitz radius (au A)           
   ENMAX  =  211.555; ENMIN  =  158.666 eV                                      
   ICORE  =        3    local potential                                         
   LCOR   =        T    correct aug charges                                     
   LPAW   =        T    paw PP                                                  
   EAUG   =  446.842                                                            
   DEXC   =    0.000                                                            
   RMAX   =    2.147    core radius for proj-oper                               
   RAUG   =    1.300    factor for augmentation sphere                          
   RDEP   =    2.177    radius for radial grids                                 
   RDEPT  =    1.928    core radius for aug-charge                              
                                                                                
   Atomic configuration                                                         
   10 entries                                                                   
     n  l   j            E        occ.                                          
     1  0  0.50    -12503.4787   2.0000                                         
     2  0  0.50     -1606.9547   2.0000                                         
     2  1  1.50     -1413.3140   6.0000                                         
     3  0  0.50      -213.4885   2.0000                                         
     3  1  1.50      -152.9538   6.0000                                         
     3  2  2.50       -53.1221  10.0000                                         
     4  0  0.50       -17.2865   2.0000                                         
     4  1  0.50        -6.5110   4.0000                                         
     4  2  2.50        -6.8029   0.0000                                         
     4  3  2.50        -6.8029   0.0000                                         
   Description                                                                  
     l       E           TYP  RCUT    TYP  RCUT                                 
     0    -17.2865377     23  2.100                                             
     0    -15.3094411     23  2.100                                             
     1     -6.5110275     23  2.100                                             
     1     -0.0695192     23  2.100                                             
     2     -6.8029130     23  2.100                                             
     3     -1.3605826      7  2.100                                             
  local pseudopotential read in
  partial core-charges read in
  partial kinetic energy density read in
  atomic valenz-charges read in
  non local Contribution for L=           0  read in
    real space projection operators read in
  non local Contribution for L=           0  read in
    real space projection operators read in
  non local Contribution for L=           1  read in
    real space projection operators read in
  non local Contribution for L=           1  read in
    real space projection operators read in
  non local Contribution for L=           2  read in
    real space projection operators read in
    PAW grid and wavefunctions read in
 
   number of l-projection  operators is LMAX  =           5
   number of lm-projection operators is LMMAX =          13
 

 ----------------------------------------------------------------------------- 
|                                                                             |
|  ADVICE TO THIS USER RUNNING 'VASP/VAMP'   (HEAR YOUR MASTER'S VOICE ...):  |
|                                                                             |
|      You enforced a specific xc-type in the INCAR file,                     |
|      a different type was found on the POTCAR file                          |
|          I HOPE YOU KNOW, WHAT YOU ARE  DOING                               |
|                                                                             |
 ----------------------------------------------------------------------------- 

  PAW_PBE Zn 06Sep2000                  :
 energy of atom  1       EATOM=-1748.8345
 kinetic energy error for atom=    0.0029 (will be added to EATOM!!)
  PAW_PBE Se 06Sep2000                  :
 energy of atom  2       EATOM= -257.1286
 kinetic energy error for atom=    0.0008 (will be added to EATOM!!)
 
 
 POSCAR: Zn Se                                   
  positions in direct lattice
  velocities in cartesian coordinates
 exchange correlation table for  LEXCH =       14
   RHO(1)=    0.500       N(1)  =     2000
   RHO(2)=  100.500       N(2)  =     4000
 


--------------------------------------------------------------------------------------------------------


 ion  position               nearest neighbor table
   1  0.000  0.000  0.000-   3 2.38   4 2.38   4 2.38   3 2.38
   2  0.500  0.500  0.500-   3 2.38   4 2.38   3 2.38   4 2.38
   3  0.250  0.500  0.000-   1 2.38   2 2.38   2 2.38   1 2.38
   4  0.750  0.000  0.500-   1 2.38   2 2.38   1 2.38   2 2.38
 
  LATTYP: Found a simple tetragonal cell.
 ALAT       =     3.8875988340
 C/A-ratio  =     1.4164088251
  
  Lattice vectors:
  
 A1 = (   0.0000000000,   3.8875988340,   0.0000000000)
 A2 = (   0.0000000000,   0.0000000000,  -3.8875988340)
 A3 = (  -5.5064292969,   0.0000000000,   0.0000000000)


Analysis of symmetry for initial positions (statically):
=====================================================================
 Subroutine PRICEL returns following result:
 
  LATTYP: Found a body centered tetragonal cell.
 ALAT       =     3.8875988340
 C/A-ratio  =     1.4164088251
  
  Lattice vectors:
  
 A1 = (   2.7532146484,   1.9437994170,  -1.9437994170)
 A2 = (   2.7532146484,  -1.9437994170,   1.9437994170)
 A3 = (  -2.7532146484,  -1.9437994170,  -1.9437994170)
 
   2 primitive cells build up your supercell.
 

 Routine SETGRP: Setting up the symmetry group for a 
 simple tetragonal supercell.


 Subroutine GETGRP returns: Found  8 space group operations
 (whereof  8 operations were pure point group operations)
 out of a pool of 16 trial point group operations.


The static configuration has the point symmetry D_2d.


Analysis of symmetry for dynamics (positions and initial velocities):
=====================================================================
 Subroutine PRICEL returns following result:
 
  LATTYP: Found a body centered tetragonal cell.
 ALAT       =     3.8875988340
 C/A-ratio  =     1.4164088251
  
  Lattice vectors:
  
 A1 = (   2.7532146484,   1.9437994170,  -1.9437994170)
 A2 = (   2.7532146484,  -1.9437994170,   1.9437994170)
 A3 = (  -2.7532146484,  -1.9437994170,  -1.9437994170)
 
   2 primitive cells build up your supercell.
 

 Routine SETGRP: Setting up the symmetry group for a 
 simple tetragonal supercell.


 Subroutine GETGRP returns: Found  8 space group operations
 (whereof  8 operations were pure point group operations)
 out of a pool of 16 trial point group operations.


The dynamic configuration has the point symmetry D_2d.
 
 
 KPOINTS: Automatically generated k-point mesh    

Automatic generation of k-mesh.
Space group operators:
 irot       det(A)        alpha          n_x          n_y          n_z        tau_x        tau_y        tau_z
    1     1.000000     0.000000     1.000000     0.000000     0.000000     0.000000     0.000000     0.000000
    2    -1.000000    90.000000     1.000000     0.000000     0.000000     0.000000     0.000000     0.000000
    3     1.000000   180.000000     1.000000     0.000000     0.000000     0.000000     0.000000     0.000000
    4    -1.000000    90.000000    -1.000000     0.000000     0.000000     0.000000     0.000000     0.000000
    5    -1.000000   180.000000     0.000000     0.000000     1.000000     0.000000     0.000000     0.000000
    6     1.000000   180.000000     0.000000    -0.707107     0.707107     0.000000     0.000000     0.000000
    7    -1.000000   180.000000     0.000000     1.000000     0.000000     0.000000     0.000000     0.000000
    8     1.000000   180.000000     0.000000     0.707107     0.707107     0.000000     0.000000     0.000000
 
 Subroutine IBZKPT returns following result:
 ===========================================
 
 Found     30 irreducible k-points:
 
 Following reciprocal coordinates:
            Coordinates               Weight
  0.000000  0.000000  0.000000      1.000000
  0.200000  0.000000  0.000000      2.000000
  0.400000  0.000000  0.000000      2.000000
  0.000000  0.142857  0.000000      4.000000
  0.200000  0.142857  0.000000      8.000000
  0.400000  0.142857  0.000000      8.000000
  0.000000  0.285714  0.000000      4.000000
  0.200000  0.285714  0.000000      8.000000
  0.400000  0.285714  0.000000      8.000000
  0.000000  0.428571  0.000000      4.000000
  0.200000  0.428571  0.000000      8.000000
  0.400000  0.428571  0.000000      8.000000
  0.000000  0.142857  0.142857      4.000000
  0.200000  0.142857  0.142857      8.000000
  0.400000  0.142857  0.142857      8.000000
  0.000000  0.285714  0.142857      8.000000
  0.200000  0.285714  0.142857     16.000000
  0.400000  0.285714  0.142857     16.000000
  0.000000  0.428571  0.142857      8.000000
  0.200000  0.428571  0.142857     16.000000
  0.400000  0.428571  0.142857     16.000000
  0.000000  0.285714  0.285714      4.000000
  0.200000  0.285714  0.285714      8.000000
  0.400000  0.285714  0.285714      8.000000
  0.000000  0.428571  0.285714      8.000000
  0.200000  0.428571  0.285714     16.000000
  0.400000  0.428571  0.285714     16.000000
  0.000000  0.428571  0.428571      4.000000
  0.200000  0.428571  0.428571      8.000000
  0.400000  0.428571  0.428571      8.000000
 
 Following cartesian coordinates:
            Coordinates               Weight
  0.000000  0.000000  0.000000      1.000000
  0.036321  0.000000  0.000000      2.000000
  0.072642  0.000000  0.000000      2.000000
  0.000000  0.036747  0.000000      4.000000
  0.036321  0.036747  0.000000      8.000000
  0.072642  0.036747  0.000000      8.000000
  0.000000  0.073494  0.000000      4.000000
  0.036321  0.073494  0.000000      8.000000
  0.072642  0.073494  0.000000      8.000000
  0.000000  0.110241  0.000000      4.000000
  0.036321  0.110241  0.000000      8.000000
  0.072642  0.110241  0.000000      8.000000
  0.000000  0.036747  0.036747      4.000000
  0.036321  0.036747  0.036747      8.000000
  0.072642  0.036747  0.036747      8.000000
  0.000000  0.073494  0.036747      8.000000
  0.036321  0.073494  0.036747     16.000000
  0.072642  0.073494  0.036747     16.000000
  0.000000  0.110241  0.036747      8.000000
  0.036321  0.110241  0.036747     16.000000
  0.072642  0.110241  0.036747     16.000000
  0.000000  0.073494  0.073494      4.000000
  0.036321  0.073494  0.073494      8.000000
  0.072642  0.073494  0.073494      8.000000
  0.000000  0.110241  0.073494      8.000000
  0.036321  0.110241  0.073494     16.000000
  0.072642  0.110241  0.073494     16.000000
  0.000000  0.110241  0.110241      4.000000
  0.036321  0.110241  0.110241      8.000000
  0.072642  0.110241  0.110241      8.000000
 


--------------------------------------------------------------------------------------------------------




 Dimension of arrays:
   k-points           NKPTS =     30   k-points in BZ     NKDIM =     30   number of bands    NBANDS=     24
   number of dos      NEDOS =    301   number of ions     NIONS =      4
   non local maximal  LDIM  =      6   non local SUM 2l+1 LMDIM =     18
   total plane-waves  NPLWV =  17280
   max r-space proj   IRMAX =      1   max aug-charges    IRDMAX=   1331
   dimension x,y,z NGX =    30 NGY =   24 NGZ =   24
   dimension x,y,z NGXF=    30 NGYF=   24 NGZF=   24
   support grid    NGXF=    30 NGYF=   24 NGZF=   24
   ions per type =               2   2
 NGX,Y,Z   is equivalent  to a cutoff of   9.06, 10.26, 10.26 a.u.
 NGXF,Y,Z  is equivalent  to a cutoff of   9.06, 10.26, 10.26 a.u.


 I would recommend the setting:
   dimension x,y,z NGX =    30 NGY =   21 NGZ =   21
 SYSTEM =  Name                                    
 POSCAR =  Zn Se                                   

 Startparameter for this run:
   NWRITE =      2    write-flag & timer
   PREC   = single    normal or accurate (medium, high low for compatibility)
   ISTART =      0    job   : 0-new  1-cont  2-samecut
   ICHARG =      2    charge: 1-file 2-atom 10-const
   ISPIN  =      1    spin polarized calculation?
   LNONCOLLINEAR =      F non collinear calculations
   LSORBIT =      F    spin-orbit coupling
   INIWAV =      1    electr: 0-lowe 1-rand  2-diag
   LASPH  =      F    aspherical Exc in radial PAW
   METAGGA=      F    non-selfconsistent MetaGGA calc.

 Electronic Relaxation 1
   ENCUT  =  500.0 eV  36.75 Ry    6.06 a.u.  10.04  7.09  7.09*2*pi/ulx,y,z
   ENINI  =  500.0     initial cutoff
   ENAUG  =  575.9 eV  augmentation charge cutoff
   NELM   =     60;   NELMIN=  2; NELMDL= -5     # of ELM steps 
   EDIFF  = 0.1E-05   stopping-criterion for ELM
   LREAL  =      F    real-space projection
   NLSPLINE    = F    spline interpolate recip. space projectors
   LCOMPAT=      F    compatible to vasp.4.4
   GGA_COMPAT  = T    GGA compatible to vasp.4.4-vasp.4.6
   LMAXPAW     = -100 max onsite density
   LMAXMIX     =    2 max onsite mixed and CHGCAR
   VOSKOWN=      0    Vosko Wilk Nusair interpolation
   ROPT   =    0.00000   0.00000
 Ionic relaxation
   EDIFFG = 0.1E-02   stopping-criterion for IOM
   NSW    =      0    number of steps for IOM
   NBLOCK =      1;   KBLOCK =      1    inner block; outer block 
   IBRION =     -1    ionic relax: 0-MD 1-quasi-New 2-CG
   NFREE  =      0    steps in history (QN), initial steepest desc. (CG)
   ISIF   =      3    stress and relaxation
   IWAVPR =     10    prediction:  0-non 1-charg 2-wave 3-comb
   ISYM   =      2    0-nonsym 1-usesym 2-fastsym
   LCORR  =      T    Harris-Foulkes like correction to forces

   POTIM  = 0.5000    time-step for ionic-motion
   TEIN   =    0.0    initial temperature
   TEBEG  =    0.0;   TEEND  =   0.0 temperature during run
   SMASS  =  -3.00    Nose mass-parameter (am)
   estimated Nose-frequenzy (Omega)   =  0.10E-29 period in steps =****** mass=  -0.693E-27a.u.
   SCALEE = 1.0000    scale energy and forces
   NPACO  =    256;   APACO  = 16.0  distance and # of slots for P.C.
   PSTRESS=    0.0 pullay stress

  Mass of Ions in am
   POMASS =  65.39 78.96
  Ionic Valenz
   ZVAL   =  12.00  6.00
  Atomic Wigner-Seitz radii
   RWIGS  =  -1.00 -1.00
  virtual crystal weights 
   VCA    =   1.00  1.00
   NELECT =      36.0000    total number of electrons
   NUPDOWN=      -1.0000    fix difference up-down

 DOS related values:
   EMIN   =  10.00;   EMAX   =-10.00  energy-range for DOS
   EFERMI =   0.00
   ISMEAR =     0;   SIGMA  =   0.01  broadening in eV -4-tet -1-fermi 0-gaus

 Electronic relaxation 2 (details)
   IALGO  =     38    algorithm
   LDIAG  =      T    sub-space diagonalisation (order eigenvalues)
   LSUBROT=      F    optimize rotation matrix (better conditioning)
   TURBO    =      0    0=normal 1=particle mesh
   IRESTART =      0    0=no restart 2=restart with 2 vectors
   NREBOOT  =      0    no. of reboots
   NMIN     =      0    reboot dimension
   EREF     =   0.00    reference energy to select bands
   IMIX   =      4    mixing-type and parameters
     AMIX     =   0.40;   BMIX     =  1.00
     AMIX_MAG =   1.60;   BMIX_MAG =  1.00
     AMIN     =   0.01
     WC   =   100.;   INIMIX=   1;  MIXPRE=   1;  MAXMIX= -45

 Intra band minimization:
   WEIMIN = 0.0000     energy-eigenvalue tresh-hold
   EBREAK =  0.10E-07  absolut break condition
   DEPER  =   0.30     relativ break condition  

   TIME   =   0.40     timestep for ELM

  volume/ion in A,a.u.               =      20.81       140.40
  Fermi-wavevector in a.u.,A,eV,Ry     =   1.238126  2.339718 20.857117  1.532955
  Thomas-Fermi vector in A             =   2.372664
 
 Write flags
   LWAVE  =      F    write WAVECAR
   LCHARG =      T    write CHGCAR
   LVTOT  =      F    write LOCPOT, total local potential
   LVHAR  =      T    write LOCPOT, Hartree potential only
   LELF   =      F    write electronic localiz. function (ELF)
   LORBIT =     10    0 simple, 1 ext, 2 COOP (PROOUT)


 Dipole corrections
   LMONO  =      F    monopole corrections only (constant potential shift)
   LDIPOL =      F    correct potential (dipole corrections)
   IDIPOL =      0    1-x, 2-y, 3-z, 4-all directions 
   EPSILON=  1.0000000 bulk dielectric constant

 Core level calculations are selected ICORELEVEL =  1
 Exchange correlation treatment:
   GGA     =    PS    GGA type
   LEXCH   =    14    internal setting for exchange type
   VOSKOWN=      0    Vosko Wilk Nusair interpolation
   LHFCALC =     F    Hartree Fock is set to
   LHFONE  =     F    Hartree Fock one center treatment
   AEXX    =    0.0000 exact exchange contribution

 Linear response parameters
   LEPSILON=     F    determine dielectric tensor
   LRPA    =     F    only Hartree local field effects (RPA)
   LNABLA  =     F    use nabla operator in PAW spheres
   LVEL    =     F    velocity operator in full k-point grid
   LINTERFAST=   F  fast interpolation
   KINTER  =     0    interpolate to denser k-point grid
   CSHIFT  =0.1000    complex shift for real part using Kramers Kronig
   OMEGAMAX=  -1.0    maximum frequency
   DEG_THRESHOLD= 0.2000000E-02 threshold for treating states as degnerate
   RTIME   =    0.100 relaxation time in fs

 Orbital magnetization related:
   ORBITALMAG=     F  switch on orbital magnetization
   LCHIMAG   =     F  perturbation theory with respect to B field
   DQ        =  0.001000  dq finite difference perturbation B field



--------------------------------------------------------------------------------------------------------


 Static calculation
 charge density and potential will be updated during run
 non-spin polarized calculation
 Variant of blocked Davidson
 Davidson routine will perform the subspace rotation
 perform sub-space diagonalisation
    after iterative eigenvector-optimisation
 modified Broyden-mixing scheme, WC =      100.0
 initial mixing is a Kerker type mixing with AMIX =  0.4000 and BMIX =      1.0000
 Hartree-type preconditioning will be used
 using additional bands            6
 reciprocal scheme for non local part
 use partial core corrections
 calculate Harris-corrections to forces 
   (improved forces if not selfconsistent)
 use gradient corrections 
 use of overlap-Matrix (Vanderbilt PP)
 Gauss-broadening in eV      SIGMA  =   0.01


--------------------------------------------------------------------------------------------------------


  energy-cutoff  :      500.00
  volume of cell :       83.22
      direct lattice vectors                 reciprocal lattice vectors
     5.506429297  0.000000000  0.000000000     0.181605891  0.000000000  0.000000000
     0.000000000  3.887598834  0.000000000     0.000000000  0.257228187  0.000000000
     0.000000000  0.000000000  3.887598834     0.000000000  0.000000000  0.257228187

  length of vectors
     5.506429297  3.887598834  3.887598834     0.181605891  0.257228187  0.257228187


 
 k-points in units of 2pi/SCALE and weight: Automatically generated k-point mesh    
   0.00000000  0.00000000  0.00000000       0.004
   0.03632118  0.00000000  0.00000000       0.008
   0.07264236  0.00000000  0.00000000       0.008
   0.00000000  0.03674688  0.00000000       0.016
   0.03632118  0.03674688  0.00000000       0.033
   0.07264236  0.03674688  0.00000000       0.033
   0.00000000  0.07349377  0.00000000       0.016
   0.03632118  0.07349377  0.00000000       0.033
   0.07264236  0.07349377  0.00000000       0.033
   0.00000000  0.11024065  0.00000000       0.016
   0.03632118  0.11024065  0.00000000       0.033
   0.07264236  0.11024065  0.00000000       0.033
   0.00000000  0.03674688  0.03674688       0.016
   0.03632118  0.03674688  0.03674688       0.033
   0.07264236  0.03674688  0.03674688       0.033
   0.00000000  0.07349377  0.03674688       0.033
   0.03632118  0.07349377  0.03674688       0.065
   0.07264236  0.07349377  0.03674688       0.065
   0.00000000  0.11024065  0.03674688       0.033
   0.03632118  0.11024065  0.03674688       0.065
   0.07264236  0.11024065  0.03674688       0.065
   0.00000000  0.07349377  0.07349377       0.016
   0.03632118  0.07349377  0.07349377       0.033
   0.07264236  0.07349377  0.07349377       0.033
   0.00000000  0.11024065  0.07349377       0.033
   0.03632118  0.11024065  0.07349377       0.065
   0.07264236  0.11024065  0.07349377       0.065
   0.00000000  0.11024065  0.11024065       0.016
   0.03632118  0.11024065  0.11024065       0.033
   0.07264236  0.11024065  0.11024065       0.033
 
 k-points in reciprocal lattice and weights: Automatically generated k-point mesh    
   0.00000000  0.00000000  0.00000000       0.004
   0.20000000  0.00000000  0.00000000       0.008
   0.40000000  0.00000000  0.00000000       0.008
   0.00000000  0.14285714  0.00000000       0.016
   0.20000000  0.14285714  0.00000000       0.033
   0.40000000  0.14285714  0.00000000       0.033
   0.00000000  0.28571429  0.00000000       0.016
   0.20000000  0.28571429  0.00000000       0.033
   0.40000000  0.28571429  0.00000000       0.033
   0.00000000  0.42857143  0.00000000       0.016
   0.20000000  0.42857143  0.00000000       0.033
   0.40000000  0.42857143  0.00000000       0.033
   0.00000000  0.14285714  0.14285714       0.016
   0.20000000  0.14285714  0.14285714       0.033
   0.40000000  0.14285714  0.14285714       0.033
   0.00000000  0.28571429  0.14285714       0.033
   0.20000000  0.28571429  0.14285714       0.065
   0.40000000  0.28571429  0.14285714       0.065
   0.00000000  0.42857143  0.14285714       0.033
   0.20000000  0.42857143  0.14285714       0.065
   0.40000000  0.42857143  0.14285714       0.065
   0.00000000  0.28571429  0.28571429       0.016
   0.20000000  0.28571429  0.28571429       0.033
   0.40000000  0.28571429  0.28571429       0.033
   0.00000000  0.42857143  0.28571429       0.033
   0.20000000  0.42857143  0.28571429       0.065
   0.40000000  0.42857143  0.28571429       0.065
   0.00000000  0.42857143  0.42857143       0.016
   0.20000000  0.42857143  0.42857143       0.033
   0.40000000  0.42857143  0.42857143       0.033
 
 position of ions in fractional coordinates (direct lattice) 
   0.00000000  0.00000000  0.00000000
   0.50000000  0.50000000  0.50000000
   0.25000000  0.50000000  0.00000000
   0.75000000  0.00000000  0.50000000
 
 position of ions in cartesian coordinates  (Angst):
   0.00000000  0.00000000  0.00000000
   2.75321465  1.94379942  1.94379942
   1.37660732  1.94379942  0.00000000
   4.12982197  0.00000000  1.94379942
 


--------------------------------------------------------------------------------------------------------


 k-point  1 :   0.0000 0.0000 0.0000  plane waves:    2101
 k-point  2 :   0.2000 0.0000 0.0000  plane waves:    2084
 k-point  3 :   0.4000 0.0000 0.0000  plane waves:    2096
 k-point  4 :   0.0000 0.1429 0.0000  plane waves:    2090
 k-point  5 :   0.2000 0.1429 0.0000  plane waves:    2096
 k-point  6 :   0.4000 0.1429 0.0000  plane waves:    2101
 k-point  7 :   0.0000 0.2857 0.0000  plane waves:    2106
 k-point  8 :   0.2000 0.2857 0.0000  plane waves:    2114
 k-point  9 :   0.4000 0.2857 0.0000  plane waves:    2121
 k-point 10 :   0.0000 0.4286 0.0000  plane waves:    2120
 k-point 11 :   0.2000 0.4286 0.0000  plane waves:    2122
 k-point 12 :   0.4000 0.4286 0.0000  plane waves:    2108
 k-point 13 :   0.0000 0.1429 0.1429  plane waves:    2100
 k-point 14 :   0.2000 0.1429 0.1429  plane waves:    2112
 k-point 15 :   0.4000 0.1429 0.1429  plane waves:    2108
 k-point 16 :   0.0000 0.2857 0.1429  plane waves:    2107
 k-point 17 :   0.2000 0.2857 0.1429  plane waves:    2118
 k-point 18 :   0.4000 0.2857 0.1429  plane waves:    2112
 k-point 19 :   0.0000 0.4286 0.1429  plane waves:    2108
 k-point 20 :   0.2000 0.4286 0.1429  plane waves:    2122
 k-point 21 :   0.4000 0.4286 0.1429  plane waves:    2117
 k-point 22 :   0.0000 0.2857 0.2857  plane waves:    2100
 k-point 23 :   0.2000 0.2857 0.2857  plane waves:    2111
 k-point 24 :   0.4000 0.2857 0.2857  plane waves:    2116
 k-point 25 :   0.0000 0.4286 0.2857  plane waves:    2113
 k-point 26 :   0.2000 0.4286 0.2857  plane waves:    2113
 k-point 27 :   0.4000 0.4286 0.2857  plane waves:    2124
 k-point 28 :   0.0000 0.4286 0.4286  plane waves:    2116
 k-point 29 :   0.2000 0.4286 0.4286  plane waves:    2104
 k-point 30 :   0.4000 0.4286 0.4286  plane waves:    2123

 maximum and minimum number of plane-waves per node :      2124     2084

 maximum number of plane-waves:      2124
 maximum index in each direction: 
   IXMAX=   10   IYMAX=    7   IZMAX=    7
   IXMIN=  -10   IYMIN=   -7   IZMIN=   -7

 WARNING: aliasing errors must be expected set NGX to  42 to avoid them
 WARNING: aliasing errors must be expected set NGY to  30 to avoid them
 WARNING: aliasing errors must be expected set NGZ to  30 to avoid them
 aliasing errors are usually negligible using standard VASP settings
 and one can safely disregard these warnings

 serial   3D FFT for wavefunctions
 parallel 3D FFT for charge:
    minimum data exchange during FFTs selected (reduces bandwidth)


 total amount of memory used by VASP on root node    53833. kBytes
========================================================================

   base      :      30000. kBytes
   nonl-proj :      18487. kBytes
   fftplans  :        207. kBytes
   grid      :        873. kBytes
   one-center:         62. kBytes
   wavefun   :       4204. kBytes
 
     INWAV:  cpu time    0.0000: real time    0.0000
 Broyden mixing: mesh for mixing (old mesh)
   NGX = 21   NGY = 15   NGZ = 15
  (NGX  = 30   NGY  = 24   NGZ  = 24)
  gives a total of   4725 points

 initial charge density was supplied:
 charge density of overlapping atoms calculated
 number of electron      36.0000000 magnetization 
 keeping initial charge density in first step


--------------------------------------------------------------------------------------------------------


 Maximum index for augmentation-charges          198 (set IRDMAX)


--------------------------------------------------------------------------------------------------------


 First call to EWALD:  gamma=   0.406
 Maximum number of real-space cells 2x 3x 3
 Maximum number of reciprocal cells 3x 2x 2

 FEWALD executed in parallel
    FEWALD:  cpu time    0.0018: real time    0.0060


----------------------------------------- Iteration    1(   1)  ---------------------------------------


    POTLOK:  cpu time    0.0050: real time    0.0217
    SETDIJ:  cpu time    0.0012: real time    0.0051
     EDDAV:  cpu time    0.3015: real time    1.0477
       DOS:  cpu time    0.0018: real time    0.0062
    --------------------------------------------
      LOOP:  cpu time    0.3184: real time    1.0899

 eigenvalue-minimisations  :  1440
 total energy-change (2. order) : 0.1789114E+03  (-0.1779337E+04)
 number of electron      36.0000000 magnetization 
 augmentation part       36.0000000 magnetization 

 Free energy of the ion-electron system (eV)
  ---------------------------------------------------
  alpha Z        PSCENC =       164.39671355
  Ewald energy   TEWEN  =     -2462.69869015
  -Hartree energ DENC   =     -1395.51082457
  -exchange      EXHF   =         0.00000000
  -V(xc)+E(xc)   XCENC  =       115.99614552
  PAW double counting   =      3328.66066779    -3656.44264697
  entropy T*S    EENTRO =        -0.00018433
  eigenvalues    EBANDS =        74.66245639
  atomic energy  EATOM  =      4009.84778539
  Solvation  Ediel_sol  =         0.00000000
  ---------------------------------------------------
  free energy    TOTEN  =       178.91142262 eV

  energy without entropy =      178.91160695  energy(sigma->0) =      178.91151479


--------------------------------------------------------------------------------------------------------




----------------------------------------- Iteration    1(   2)  ---------------------------------------


     EDDAV:  cpu time    0.3285: real time    1.0225
       DOS:  cpu time    0.0016: real time    0.0052
    --------------------------------------------
      LOOP:  cpu time    0.3309: real time    1.0298

 eigenvalue-minimisations  :  1656
 total energy-change (2. order) :-0.1821909E+03  (-0.1791650E+03)
 number of electron      36.0000000 magnetization 
 augmentation part       36.0000000 magnetization 

 Free energy of the ion-electron system (eV)
  ---------------------------------------------------
  alpha Z        PSCENC =       164.39671355
  Ewald energy   TEWEN  =     -2462.69869015
  -Hartree energ DENC   =     -1395.51082457
  -exchange      EXHF   =         0.00000000
  -V(xc)+E(xc)   XCENC  =       115.99614552
  PAW double counting   =      3328.66066779    -3656.44264697
  entropy T*S    EENTRO =        -0.00009506
  eigenvalues    EBANDS =      -107.52852317
  atomic energy  EATOM  =      4009.84778539
  Solvation  Ediel_sol  =         0.00000000
  ---------------------------------------------------
  free energy    TOTEN  =        -3.27946767 eV

  energy without entropy =       -3.27937261  energy(sigma->0) =       -3.27942014


--------------------------------------------------------------------------------------------------------




----------------------------------------- Iteration    1(   3)  ---------------------------------------


     EDDAV:  cpu time    0.3371: real time    1.0209
       DOS:  cpu time    0.0005: real time    0.0017
    --------------------------------------------
      LOOP:  cpu time    0.3385: real time    1.0264

 eigenvalue-minimisations  :  1740
 total energy-change (2. order) :-0.1067945E+02  (-0.1064763E+02)
 number of electron      36.0000000 magnetization 
 augmentation part       36.0000000 magnetization 

 Free energy of the ion-electron system (eV)
  ---------------------------------------------------
  alpha Z        PSCENC =       164.39671355
  Ewald energy   TEWEN  =     -2462.69869015
  -Hartree energ DENC   =     -1395.51082457
  -exchange      EXHF   =         0.00000000
  -V(xc)+E(xc)   XCENC  =       115.99614552
  PAW double counting   =      3328.66066779    -3656.44264697
  entropy T*S    EENTRO =        -0.00000000
  eigenvalues    EBANDS =      -118.20806657
  atomic energy  EATOM  =      4009.84778539
  Solvation  Ediel_sol  =         0.00000000
  ---------------------------------------------------
  free energy    TOTEN  =       -13.95891601 eV

  energy without entropy =      -13.95891601  energy(sigma->0) =      -13.95891601


--------------------------------------------------------------------------------------------------------




----------------------------------------- Iteration    1(   4)  ---------------------------------------


     EDDAV:  cpu time    0.3506: real time    1.0607
       DOS:  cpu time    0.0005: real time    0.0020
    --------------------------------------------
      LOOP:  cpu time    0.3519: real time    1.0655

 eigenvalue-minimisations  :  1800
 total energy-change (2. order) :-0.1027885E+00  (-0.1027760E+00)
 number of electron      36.0000000 magnetization 
 augmentation part       36.0000000 magnetization 

 Free energy of the ion-electron system (eV)
  ---------------------------------------------------
  alpha Z        PSCENC =       164.39671355
  Ewald energy   TEWEN  =     -2462.69869015
  -Hartree energ DENC   =     -1395.51082457
  -exchange      EXHF   =         0.00000000
  -V(xc)+E(xc)   XCENC  =       115.99614552
  PAW double counting   =      3328.66066779    -3656.44264697
  entropy T*S    EENTRO =        -0.00000000
  eigenvalues    EBANDS =      -118.31085507
  atomic energy  EATOM  =      4009.84778539
  Solvation  Ediel_sol  =         0.00000000
  ---------------------------------------------------
  free energy    TOTEN  =       -14.06170450 eV

  energy without entropy =      -14.06170450  energy(sigma->0) =      -14.06170450


--------------------------------------------------------------------------------------------------------




----------------------------------------- Iteration    1(   5)  ---------------------------------------


     EDDAV:  cpu time    0.3364: real time    1.0301
       DOS:  cpu time    0.0005: real time    0.0017
    CHARGE:  cpu time    0.0130: real time    0.0429
    MIXING:  cpu time    0.0004: real time    0.0026
    --------------------------------------------
      LOOP:  cpu time    0.3513: real time    1.0815

 eigenvalue-minimisations  :  1740
 total energy-change (2. order) :-0.5429888E-03  (-0.5429757E-03)
 number of electron      35.9999201 magnetization 
 augmentation part       13.5228190 magnetization 

 Broyden mixing:
  rms(total) = 0.78725E+00    rms(broyden)= 0.78716E+00
  rms(prec ) = 0.10525E+01
  weight for this iteration     100.00

 Free energy of the ion-electron system (eV)
  ---------------------------------------------------
  alpha Z        PSCENC =       164.39671355
  Ewald energy   TEWEN  =     -2462.69869015
  -Hartree energ DENC   =     -1395.51082457
  -exchange      EXHF   =         0.00000000
  -V(xc)+E(xc)   XCENC  =       115.99614552
  PAW double counting   =      3328.66066779    -3656.44264697
  entropy T*S    EENTRO =        -0.00000000
  eigenvalues    EBANDS =      -118.31139806
  atomic energy  EATOM  =      4009.84778539
  Solvation  Ediel_sol  =         0.00000000
  ---------------------------------------------------
  free energy    TOTEN  =       -14.06224749 eV

  energy without entropy =      -14.06224749  energy(sigma->0) =      -14.06224749


--------------------------------------------------------------------------------------------------------




----------------------------------------- Iteration    1(   6)  ---------------------------------------


    POTLOK:  cpu time    0.0041: real time    0.0133
    SETDIJ:  cpu time    0.0007: real time    0.0033
     EDDAV:  cpu time    0.3584: real time    1.1531
       DOS:  cpu time    0.0006: real time    0.0158
    CHARGE:  cpu time    0.0142: real time    0.0345
    MIXING:  cpu time    0.0008: real time    0.0055
    --------------------------------------------
      LOOP:  cpu time    0.3797: real time    1.2268

 eigenvalue-minimisations  :  1860
 total energy-change (2. order) : 0.5930838E+00  (-0.1961567E+00)
 number of electron      35.9999197 magnetization 
 augmentation part       13.7804754 magnetization 

 Broyden mixing:
  rms(total) = 0.59501E+00    rms(broyden)= 0.59500E+00
  rms(prec ) = 0.64719E+00
  weight for this iteration     100.00

 eigenvalues of (default mixing * dielectric matrix)
  average eigenvalue GAMMA=   1.7063
  1.7063

 Free energy of the ion-electron system (eV)
  ---------------------------------------------------
  alpha Z        PSCENC =       164.39671355
  Ewald energy   TEWEN  =     -2462.69869015
  -Hartree energ DENC   =     -1377.53807780
  -exchange      EXHF   =         0.00000000
  -V(xc)+E(xc)   XCENC  =       115.56994535
  PAW double counting   =      3533.70139396    -3856.01446091
  entropy T*S    EENTRO =        -0.00000000
  eigenvalues    EBANDS =      -140.73377312
  atomic energy  EATOM  =      4009.84778539
  Solvation  Ediel_sol  =         0.00000000
  ---------------------------------------------------
  free energy    TOTEN  =       -13.46916373 eV

  energy without entropy =      -13.46916373  energy(sigma->0) =      -13.46916373


--------------------------------------------------------------------------------------------------------




----------------------------------------- Iteration    1(   7)  ---------------------------------------


    POTLOK:  cpu time    0.0040: real time    0.0154
    SETDIJ:  cpu time    0.0008: real time    0.0054
     EDDAV:  cpu time    0.3098: real time    1.0664
       DOS:  cpu time    0.0006: real time    0.0096
    CHARGE:  cpu time    0.0131: real time    0.0324
    MIXING:  cpu time    0.0005: real time    0.0016
    --------------------------------------------
      LOOP:  cpu time    0.3296: real time    1.1319

 eigenvalue-minimisations  :  1536
 total energy-change (2. order) : 0.2954037E-01  (-0.7290192E-01)
 number of electron      35.9999195 magnetization 
 augmentation part       13.7776214 magnetization 

 Broyden mixing:
  rms(total) = 0.24211E+00    rms(broyden)= 0.24211E+00
  rms(prec ) = 0.25799E+00
  weight for this iteration     100.00

 eigenvalues of (default mixing * dielectric matrix)
  average eigenvalue GAMMA=   1.6404
  0.9008  2.3799

 Free energy of the ion-electron system (eV)
  ---------------------------------------------------
  alpha Z        PSCENC =       164.39671355
  Ewald energy   TEWEN  =     -2462.69869015
  -Hartree energ DENC   =     -1378.56492330
  -exchange      EXHF   =         0.00000000
  -V(xc)+E(xc)   XCENC  =       115.84531506
  PAW double counting   =      3760.43537457    -4087.58954382
  entropy T*S    EENTRO =        -0.00000000
  eigenvalues    EBANDS =      -135.11165465
  atomic energy  EATOM  =      4009.84778539
  Solvation  Ediel_sol  =         0.00000000
  ---------------------------------------------------
  free energy    TOTEN  =       -13.43962336 eV

  energy without entropy =      -13.43962336  energy(sigma->0) =      -13.43962336


--------------------------------------------------------------------------------------------------------




----------------------------------------- Iteration    1(   8)  ---------------------------------------


    POTLOK:  cpu time    0.0039: real time    0.0132
    SETDIJ:  cpu time    0.0007: real time    0.0015
     EDDAV:  cpu time    0.3370: real time    1.1848
       DOS:  cpu time    0.0006: real time    0.0092
    CHARGE:  cpu time    0.0140: real time    0.0361
    MIXING:  cpu time    0.0007: real time    0.0040
    --------------------------------------------
      LOOP:  cpu time    0.3578: real time    1.2514

 eigenvalue-minimisations  :  1872
 total energy-change (2. order) : 0.3845012E-02  (-0.8465946E-03)
 number of electron      35.9999195 magnetization 
 augmentation part       13.7715239 magnetization 

 Broyden mixing:
  rms(total) = 0.57745E-01    rms(broyden)= 0.57745E-01
  rms(prec ) = 0.68169E-01
  weight for this iteration     100.00

 eigenvalues of (default mixing * dielectric matrix)
  average eigenvalue GAMMA=   1.5574
  2.4560  1.1081  1.1081

 Free energy of the ion-electron system (eV)
  ---------------------------------------------------
  alpha Z        PSCENC =       164.39671355
  Ewald energy   TEWEN  =     -2462.69869015
  -Hartree energ DENC   =     -1377.26590644
  -exchange      EXHF   =         0.00000000
  -V(xc)+E(xc)   XCENC  =       115.87624534
  PAW double counting   =      3911.54267173    -4240.45813238
  entropy T*S    EENTRO =        -0.00000000
  eigenvalues    EBANDS =      -134.67646537
  atomic energy  EATOM  =      4009.84778539
  Solvation  Ediel_sol  =         0.00000000
  ---------------------------------------------------
  free energy    TOTEN  =       -13.43577835 eV

  energy without entropy =      -13.43577835  energy(sigma->0) =      -13.43577835


--------------------------------------------------------------------------------------------------------




----------------------------------------- Iteration    1(   9)  ---------------------------------------


    POTLOK:  cpu time    0.0039: real time    0.0131
    SETDIJ:  cpu time    0.0009: real time    0.0049
     EDDAV:  cpu time    0.3465: real time    1.1034
       DOS:  cpu time    0.0006: real time    0.0087
    CHARGE:  cpu time    0.0135: real time    0.0329
    MIXING:  cpu time    0.0006: real time    0.0019
    --------------------------------------------
      LOOP:  cpu time    0.3669: real time    1.1663

 eigenvalue-minimisations  :  1812
 total energy-change (2. order) : 0.8657571E-03  (-0.3135968E-03)
 number of electron      35.9999195 magnetization 
 augmentation part       13.7757531 magnetization 

 Broyden mixing:
  rms(total) = 0.88794E-02    rms(broyden)= 0.88793E-02
  rms(prec ) = 0.11680E-01
  weight for this iteration     100.00

 eigenvalues of (default mixing * dielectric matrix)
  average eigenvalue GAMMA=   1.6721
  2.2621  2.2621  1.0822  1.0822

 Free energy of the ion-electron system (eV)
  ---------------------------------------------------
  alpha Z        PSCENC =       164.39671355
  Ewald energy   TEWEN  =     -2462.69869015
  -Hartree energ DENC   =     -1376.17288642
  -exchange      EXHF   =         0.00000000
  -V(xc)+E(xc)   XCENC  =       115.85134626
  PAW double counting   =      3962.04160690    -4291.17607209
  entropy T*S    EENTRO =        -0.00000000
  eigenvalues    EBANDS =      -135.52471603
  atomic energy  EATOM  =      4009.84778539
  Solvation  Ediel_sol  =         0.00000000
  ---------------------------------------------------
  free energy    TOTEN  =       -13.43491259 eV

  energy without entropy =      -13.43491259  energy(sigma->0) =      -13.43491259


--------------------------------------------------------------------------------------------------------




----------------------------------------- Iteration    1(  10)  ---------------------------------------


    POTLOK:  cpu time    0.0039: real time    0.0131
    SETDIJ:  cpu time    0.0008: real time    0.0023
     EDDAV:  cpu time    0.3555: real time    1.1115
       DOS:  cpu time    0.0005: real time    0.0094
    CHARGE:  cpu time    0.0133: real time    0.0323
    MIXING:  cpu time    0.0007: real time    0.0023
    --------------------------------------------
      LOOP:  cpu time    0.3758: real time    1.1736

 eigenvalue-minimisations  :  1932
 total energy-change (2. order) :-0.6750988E-04  (-0.9491347E-04)
 number of electron      35.9999195 magnetization 
 augmentation part       13.7733031 magnetization 

 Broyden mixing:
  rms(total) = 0.37029E-02    rms(broyden)= 0.37029E-02
  rms(prec ) = 0.63409E-02
  weight for this iteration     100.00

 eigenvalues of (default mixing * dielectric matrix)
  average eigenvalue GAMMA=   1.6756
  2.5375  2.5375  0.9702  0.9702  1.3626

 Free energy of the ion-electron system (eV)
  ---------------------------------------------------
  alpha Z        PSCENC =       164.39671355
  Ewald energy   TEWEN  =     -2462.69869015
  -Hartree energ DENC   =     -1376.31090616
  -exchange      EXHF   =         0.00000000
  -V(xc)+E(xc)   XCENC  =       115.85042030
  PAW double counting   =      3953.95900350    -4283.09269870
  entropy T*S    EENTRO =        -0.00000000
  eigenvalues    EBANDS =      -135.38660783
  atomic energy  EATOM  =      4009.84778539
  Solvation  Ediel_sol  =         0.00000000
  ---------------------------------------------------
  free energy    TOTEN  =       -13.43498010 eV

  energy without entropy =      -13.43498010  energy(sigma->0) =      -13.43498010


--------------------------------------------------------------------------------------------------------




----------------------------------------- Iteration    1(  11)  ---------------------------------------


    POTLOK:  cpu time    0.0039: real time    0.0127
    SETDIJ:  cpu time    0.0007: real time    0.0021
     EDDAV:  cpu time    0.3372: real time    1.0674
       DOS:  cpu time    0.0006: real time    0.0159
    CHARGE:  cpu time    0.0131: real time    0.0252
    MIXING:  cpu time    0.0007: real time    0.0022
    --------------------------------------------
      LOOP:  cpu time    0.3572: real time    1.1281

 eigenvalue-minimisations  :  1800
 total energy-change (2. order) : 0.8435614E-05  (-0.1128317E-04)
 number of electron      35.9999195 magnetization 
 augmentation part       13.7737248 magnetization 

 Broyden mixing:
  rms(total) = 0.11316E-02    rms(broyden)= 0.11316E-02
  rms(prec ) = 0.22223E-02
  weight for this iteration     100.00

 eigenvalues of (default mixing * dielectric matrix)
  average eigenvalue GAMMA=   1.5712
  2.4386  2.4386  1.7037  1.0165  1.0165  0.8135

 Free energy of the ion-electron system (eV)
  ---------------------------------------------------
  alpha Z        PSCENC =       164.39671355
  Ewald energy   TEWEN  =     -2462.69869015
  -Hartree energ DENC   =     -1376.31540210
  -exchange      EXHF   =         0.00000000
  -V(xc)+E(xc)   XCENC  =       115.85456453
  PAW double counting   =      3954.39154953    -4283.53678432
  entropy T*S    EENTRO =        -0.00000000
  eigenvalues    EBANDS =      -135.37470810
  atomic energy  EATOM  =      4009.84778539
  Solvation  Ediel_sol  =         0.00000000
  ---------------------------------------------------
  free energy    TOTEN  =       -13.43497166 eV

  energy without entropy =      -13.43497166  energy(sigma->0) =      -13.43497166


--------------------------------------------------------------------------------------------------------




----------------------------------------- Iteration    1(  12)  ---------------------------------------


    POTLOK:  cpu time    0.0041: real time    0.0135
    SETDIJ:  cpu time    0.0007: real time    0.0026
     EDDAV:  cpu time    0.3501: real time    1.0804
       DOS:  cpu time    0.0005: real time    0.0097
    CHARGE:  cpu time    0.0139: real time    0.0356
    MIXING:  cpu time    0.0008: real time    0.0025
    --------------------------------------------
      LOOP:  cpu time    0.3712: real time    1.1469

 eigenvalue-minimisations  :  1860
 total energy-change (2. order) : 0.2692910E-05  (-0.3859069E-05)
 number of electron      35.9999195 magnetization 
 augmentation part       13.7742235 magnetization 

 Broyden mixing:
  rms(total) = 0.31903E-03    rms(broyden)= 0.31903E-03
  rms(prec ) = 0.49820E-03
  weight for this iteration     100.00

 eigenvalues of (default mixing * dielectric matrix)
  average eigenvalue GAMMA=   1.6750
  3.0419  2.4394  1.9280  1.4718  0.9597  0.9597  0.9242

 Free energy of the ion-electron system (eV)
  ---------------------------------------------------
  alpha Z        PSCENC =       164.39671355
  Ewald energy   TEWEN  =     -2462.69869015
  -Hartree energ DENC   =     -1376.31722410
  -exchange      EXHF   =         0.00000000
  -V(xc)+E(xc)   XCENC  =       115.85574457
  PAW double counting   =      3954.62440849    -4283.76739174
  entropy T*S    EENTRO =        -0.00000000
  eigenvalues    EBANDS =      -135.37631499
  atomic energy  EATOM  =      4009.84778539
  Solvation  Ediel_sol  =         0.00000000
  ---------------------------------------------------
  free energy    TOTEN  =       -13.43496897 eV

  energy without entropy =      -13.43496897  energy(sigma->0) =      -13.43496897


--------------------------------------------------------------------------------------------------------




----------------------------------------- Iteration    1(  13)  ---------------------------------------


    POTLOK:  cpu time    0.0039: real time    0.0124
    SETDIJ:  cpu time    0.0007: real time    0.0024
     EDDAV:  cpu time    0.3189: real time    1.0330
       DOS:  cpu time    0.0005: real time    0.0019
    --------------------------------------------
      LOOP:  cpu time    0.3308: real time    1.0908

 eigenvalue-minimisations  :  1704
 total energy-change (2. order) :-0.5752913E-06  (-0.4035236E-06)
 number of electron      35.9999195 magnetization 
 augmentation part       13.7742235 magnetization 

 Free energy of the ion-electron system (eV)
  ---------------------------------------------------
  alpha Z        PSCENC =       164.39671355
  Ewald energy   TEWEN  =     -2462.69869015
  -Hartree energ DENC   =     -1376.32728309
  -exchange      EXHF   =         0.00000000
  -V(xc)+E(xc)   XCENC  =       115.85578420
  PAW double counting   =      3954.59348257    -4283.73197500
  entropy T*S    EENTRO =        -0.00000000
  eigenvalues    EBANDS =      -135.37078702
  atomic energy  EATOM  =      4009.84778539
  Solvation  Ediel_sol  =         0.00000000
  ---------------------------------------------------
  free energy    TOTEN  =       -13.43496955 eV

  energy without entropy =      -13.43496955  energy(sigma->0) =      -13.43496955


--------------------------------------------------------------------------------------------------------




 the core state eigenenergies are
   1-  1s  -9518.7072  2s  -1152.2657  2p   -997.9168  3s   -123.2481  3p    -77.4091
     
   2-  1s  -9518.7072  2s  -1152.2657  2p   -997.9168  3s   -123.2481  3p    -77.4091
     
   3-  1s -12494.5875  2s  -1598.1477  2p  -1404.4887  3s   -204.9157  3p   -144.3895
       3d    -44.5858
   4-  1s -12494.5875  2s  -1598.1477  2p  -1404.4887  3s   -204.9157  3p   -144.3895
       3d    -44.5858
 
 E-fermi :   2.3890     XC(G=0):  -9.9367     alpha+bet : -7.8809


 k-point     1 :       0.0000    0.0000    0.0000
  band No.  band energies     occupation 
      1     -11.6075      2.00000
      2     -10.3166      2.00000
      3      -4.6786      2.00000
      4      -4.6301      2.00000
      5      -4.6295      2.00000
      6      -4.6295      2.00000
      7      -4.3151      2.00000
      8      -4.3151      2.00000
      9      -4.1788      2.00000
     10      -4.1729      2.00000
     11      -4.1119      2.00000
     12      -3.9627      2.00000
     13      -2.8963      2.00000
     14      -0.2459      2.00000
     15      -0.2459      2.00000
     16       2.2972      2.00000
     17       2.3036      2.00000
     18       2.3036      2.00000
     19       3.8404      0.00000
     20       4.9234      0.00000
     21       5.6450      0.00000
     22       7.9867      0.00000
     23       7.9867      0.00000
     24       7.9903      0.00000

 k-point     2 :       0.2000    0.0000    0.0000
  band No.  band energies     occupation 
      1     -11.5041      2.00000
      2     -10.4658      2.00000
      3      -4.6849      2.00000
      4      -4.6439      2.00000
      5      -4.6064      2.00000
      6      -4.6064      2.00000
      7      -4.3541      2.00000
      8      -4.3541      2.00000
      9      -4.1889      2.00000
     10      -4.1671      2.00000
     11      -4.1178      2.00000
     12      -4.1014      2.00000
     13      -2.4038      2.00000
     14      -0.0539      2.00000
     15      -0.0539      2.00000
     16       1.2792      2.00000
     17       1.9601      2.00000
     18       1.9601      2.00000
     19       4.9429      0.00000
     20       5.1059      0.00000
     21       5.8647      0.00000
     22       7.4335      0.00000
     23       8.4945      0.00000
     24       8.4945      0.00000

 k-point     3 :       0.4000    0.0000    0.0000
  band No.  band energies     occupation 
      1     -11.2176      2.00000
      2     -10.8245      2.00000
      3      -4.6909      2.00000
      4      -4.6733      2.00000
      5      -4.5402      2.00000
      6      -4.5402      2.00000
      7      -4.4451      2.00000
      8      -4.4451      2.00000
      9      -4.2096      2.00000
     10      -4.2044      2.00000
     11      -4.1518      2.00000
     12      -4.1330      2.00000
     13      -1.3688      2.00000
     14      -0.1040      2.00000
     15       0.4755      2.00000
     16       0.4755      2.00000
     17       1.2197      2.00000
     18       1.2197      2.00000
     19       5.6339      0.00000
     20       6.2490      0.00000
     21       6.3726      0.00000
     22       6.4661      0.00000
     23       9.7281      0.00000
     24       9.7281      0.00000

 k-point     4 :       0.0000    0.1429    0.0000
  band No.  band energies     occupation 
      1     -11.5023      2.00000
      2     -10.3174      2.00000
      3      -4.6338      2.00000
      4      -4.6274      2.00000
      5      -4.6146      2.00000
      6      -4.6078      2.00000
      7      -4.3345      2.00000
      8      -4.3091      2.00000
      9      -4.1790      2.00000
     10      -4.1764      2.00000
     11      -4.1256      2.00000
     12      -3.9009      2.00000
     13      -2.8977      2.00000
     14      -0.7983      2.00000
     15      -0.0897      2.00000
     16       1.1008      2.00000
     17       1.9212      2.00000
     18       2.2325      2.00000
     19       4.8310      0.00000
     20       5.3163      0.00000
     21       6.4994      0.00000
     22       7.8018      0.00000
     23       8.1417      0.00000
     24       8.4911      0.00000

 k-point     5 :       0.2000    0.1429    0.0000
  band No.  band energies     occupation 
      1     -11.4051      2.00000
      2     -10.4502      2.00000
      3      -4.6307      2.00000
      4      -4.6291      2.00000
      5      -4.5985      2.00000
      6      -4.5953      2.00000
      7      -4.3725      2.00000
      8      -4.3493      2.00000
      9      -4.1850      2.00000
     10      -4.1719      2.00000
     11      -4.1262      2.00000
     12      -4.0511      2.00000
     13      -2.5135      2.00000
     14      -0.4991      2.00000
     15       0.0887      2.00000
     16       0.3054      2.00000
     17       1.9335      2.00000
     18       2.0334      2.00000
     19       5.1018      0.00000
     20       5.5158      0.00000
     21       6.6654      0.00000
     22       8.0069      0.00000
     23       8.4779      0.00000
     24       8.5320      0.00000

 k-point     6 :       0.4000    0.1429    0.0000
  band No.  band energies     occupation 
      1     -11.1371      2.00000
      2     -10.7747      2.00000
      3      -4.6402      2.00000
      4      -4.6395      2.00000
      5      -4.5393      2.00000
      6      -4.5376      2.00000
      7      -4.4561      2.00000
      8      -4.4419      2.00000
      9      -4.2007      2.00000
     10      -4.1820      2.00000
     11      -4.1542      2.00000
     12      -4.1357      2.00000
     13      -1.7381      2.00000
     14      -0.7811      2.00000
     15       0.2971      2.00000
     16       0.5811      2.00000
     17       1.2674      2.00000
     18       1.3101      2.00000
     19       6.0111      0.00000
     20       6.0179      0.00000
     21       7.0224      0.00000
     22       7.3079      0.00000
     23       9.1838      0.00000
     24       9.4892      0.00000

 k-point     7 :       0.0000    0.2857    0.0000
  band No.  band energies     occupation 
      1     -11.2175      2.00000
      2     -10.3599      2.00000
      3      -4.6173      2.00000
      4      -4.5742      2.00000
      5      -4.5585      2.00000
      6      -4.5531      2.00000
      7      -4.3862      2.00000
      8      -4.2525      2.00000
      9      -4.1908      2.00000
     10      -4.1652      2.00000
     11      -4.1546      2.00000
     12      -3.8526      2.00000
     13      -2.9133      2.00000
     14      -1.3606      2.00000
     15      -0.4690      2.00000
     16       0.3378      2.00000
     17       0.9610      2.00000
     18       1.9862      2.00000
     19       5.8131      0.00000
     20       5.8851      0.00000
     21       7.8845      0.00000
     22       8.4924      0.00000
     23       8.5745      0.00000
     24       9.0854      0.00000

 k-point     8 :       0.2000    0.2857    0.0000
  band No.  band energies     occupation 
      1     -11.1406      2.00000
      2     -10.4463      2.00000
      3      -4.5887      2.00000
      4      -4.5657      2.00000
      5      -4.5580      2.00000
      6      -4.5499      2.00000
      7      -4.4188      2.00000
      8      -4.2798      2.00000
      9      -4.1801      2.00000
     10      -4.1710      2.00000
     11      -4.1460      2.00000
     12      -3.9358      2.00000
     13      -2.9701      2.00000
     14      -1.1290      2.00000
     15      -0.7635      2.00000
     16       0.4762      2.00000
     17       1.4862      2.00000
     18       1.8042      2.00000
     19       5.2979      0.00000
     20       5.9606      0.00000
     21       8.3399      0.00000
     22       8.6262      0.00000
     23       8.6422      0.00000
     24       9.1787      0.00000

 k-point     9 :       0.4000    0.2857    0.0000
  band No.  band energies     occupation 
      1     -10.9340      2.00000
      2     -10.6686      2.00000
      3      -4.5548      2.00000
      4      -4.5494      2.00000
      5      -4.5362      2.00000
      6      -4.4957      2.00000
      7      -4.4825      2.00000
      8      -4.3563      2.00000
      9      -4.1790      2.00000
     10      -4.1574      2.00000
     11      -4.1421      2.00000
     12      -4.1279      2.00000
     13      -2.6810      2.00000
     14      -2.0242      2.00000
     15       0.3957      2.00000
     16       0.8536      2.00000
     17       1.3574      2.00000
     18       1.4316      2.00000
     19       5.3030      0.00000
     20       5.9983      0.00000
     21       7.9577      0.00000
     22       8.4262      0.00000
     23       8.9489      0.00000
     24       9.6678      0.00000

 k-point    10 :       0.0000    0.4286    0.0000
  band No.  band energies     occupation 
      1     -10.8467      2.00000
      2     -10.5285      2.00000
      3      -4.5286      2.00000
      4      -4.5233      2.00000
      5      -4.5175      2.00000
      6      -4.4937      2.00000
      7      -4.4523      2.00000
      8      -4.2568      2.00000
      9      -4.1942      2.00000
     10      -4.1811      2.00000
     11      -4.1396      2.00000
     12      -4.0741      2.00000
     13      -2.5839      2.00000
     14      -1.7351      2.00000
     15      -1.0560      2.00000
     16      -0.1630      2.00000
     17       0.9284      2.00000
     18       1.5292      2.00000
     19       6.3903      0.00000
     20       6.5369      0.00000
     21       8.6142      0.00000
     22       8.7501      0.00000
     23       8.8704      0.00000
     24       9.2296      0.00000

 k-point    11 :       0.2000    0.4286    0.0000
  band No.  band energies     occupation 
      1     -10.8094      2.00000
      2     -10.5506      2.00000
      3      -4.5316      2.00000
      4      -4.5240      2.00000
      5      -4.5240      2.00000
      6      -4.4738      2.00000
      7      -4.4341      2.00000
      8      -4.2284      2.00000
      9      -4.1799      2.00000
     10      -4.1669      2.00000
     11      -4.1436      2.00000
     12      -4.0245      2.00000
     13      -3.0780      2.00000
     14      -2.3291      2.00000
     15      -0.3130      2.00000
     16       0.5461      2.00000
     17       0.9961      2.00000
     18       1.4864      2.00000
     19       5.7832      0.00000
     20       6.2165      0.00000
     21       8.1220      0.00000
     22       8.4166      0.00000
     23       8.8883      0.00000
     24       9.5604      0.00000

 k-point    12 :       0.4000    0.4286    0.0000
  band No.  band energies     occupation 
      1     -10.7175      2.00000
      2     -10.6178      2.00000
      3      -4.5294      2.00000
      4      -4.5281      2.00000
      5      -4.5261      2.00000
      6      -4.5100      2.00000
      7      -4.2515      2.00000
      8      -4.1859      2.00000
      9      -4.1561      2.00000
     10      -4.1559      2.00000
     11      -4.1497      2.00000
     12      -3.9780      2.00000
     13      -3.4926      2.00000
     14      -3.0916      2.00000
     15       0.8398      2.00000
     16       1.1663      2.00000
     17       1.3026      2.00000
     18       1.3563      2.00000
     19       4.9540      0.00000
     20       5.3737      0.00000
     21       8.2222      0.00000
     22       8.6090      0.00000
     23       8.6109      0.00000
     24       8.8490      0.00000

 k-point    13 :       0.0000    0.1429    0.1429
  band No.  band energies     occupation 
      1     -11.4001      2.00000
      2     -10.3121      2.00000
      3      -4.6555      2.00000
      4      -4.5836      2.00000
      5      -4.5833      2.00000
      6      -4.5827      2.00000
      7      -4.3527      2.00000
      8      -4.2926      2.00000
      9      -4.1937      2.00000
     10      -4.1655      2.00000
     11      -4.1449      2.00000
     12      -3.8577      2.00000
     13      -2.8893      2.00000
     14      -0.6505      2.00000
     15      -0.6359      2.00000
     16       0.6849      2.00000
     17       1.6571      2.00000
     18       1.6624      2.00000
     19       5.5828      0.00000
     20       6.1876      0.00000
     21       6.8610      0.00000
     22       7.0106      0.00000
     23       8.9552      0.00000
     24       8.9691      0.00000

 k-point    14 :       0.2000    0.1429    0.1429
  band No.  band energies     occupation 
      1     -11.3088      2.00000
      2     -10.4308      2.00000
      3      -4.6338      2.00000
      4      -4.5827      2.00000
      5      -4.5820      2.00000
      6      -4.5708      2.00000
      7      -4.4031      2.00000
      8      -4.3185      2.00000
      9      -4.1925      2.00000
     10      -4.1655      2.00000
     11      -4.1404      2.00000
     12      -4.0140      2.00000
     13      -2.5682      2.00000
     14      -0.6375      2.00000
     15      -0.1294      2.00000
     16      -0.0323      2.00000
     17       1.2817      2.00000
     18       1.9936      2.00000
     19       5.6843      0.00000
     20       6.3928      0.00000
     21       6.9826      0.00000
     22       7.5671      0.00000
     23       8.6540      0.00000
     24       9.0431      0.00000

 k-point    15 :       0.4000    0.1429    0.1429
  band No.  band energies     occupation 
      1     -11.0587      2.00000
      2     -10.7247      2.00000
      3      -4.6038      2.00000
      4      -4.5895      2.00000
      5      -4.5407      2.00000
      6      -4.5307      2.00000
      7      -4.4803      2.00000
      8      -4.4166      2.00000
      9      -4.1996      2.00000
     10      -4.1773      2.00000
     11      -4.1510      2.00000
     12      -4.1308      2.00000
     13      -1.8965      2.00000
     14      -1.0316      2.00000
     15      -0.2027      2.00000
     16       0.5113      2.00000
     17       0.7799      2.00000
     18       1.6931      2.00000
     19       6.3290      0.00000
     20       6.9510      0.00000
     21       7.0686      0.00000
     22       7.6866      0.00000
     23       8.7733      0.00000
     24       8.9414      0.00000

 k-point    16 :       0.0000    0.2857    0.1429
  band No.  band energies     occupation 
      1     -11.1249      2.00000
      2     -10.3368      2.00000
      3      -4.6581      2.00000
      4      -4.5307      2.00000
      5      -4.5271      2.00000
      6      -4.5255      2.00000
      7      -4.3891      2.00000
      8      -4.2346      2.00000
      9      -4.2028      2.00000
     10      -4.1901      2.00000
     11      -4.1543      2.00000
     12      -3.8264      2.00000
     13      -2.8852      2.00000
     14      -1.2248      2.00000
     15      -0.5925      2.00000
     16      -0.2189      2.00000
     17       0.8872      2.00000
     18       1.3227      2.00000
     19       6.4040      0.00000
     20       6.6698      0.00000
     21       6.8607      0.00000
     22       8.4040      0.00000
     23       9.3584      0.00000
     24       9.7329      0.00000

 k-point    17 :       0.2000    0.2857    0.1429
  band No.  band energies     occupation 
      1     -11.0531      2.00000
      2     -10.4149      2.00000
      3      -4.6225      2.00000
      4      -4.5297      2.00000
      5      -4.5231      2.00000
      6      -4.5221      2.00000
      7      -4.4295      2.00000
      8      -4.2519      2.00000
      9      -4.1944      2.00000
     10      -4.1702      2.00000
     11      -4.1552      2.00000
     12      -3.9170      2.00000
     13      -2.9019      2.00000
     14      -1.1588      2.00000
     15      -0.9061      2.00000
     16       0.1273      2.00000
     17       1.0276      2.00000
     18       1.3262      2.00000
     19       6.0204      0.00000
     20       6.9859      0.00000
     21       7.5312      0.00000
     22       7.9135      0.00000
     23       9.1515      0.00000
     24       9.3454      0.00000

 k-point    18 :       0.4000    0.2857    0.1429
  band No.  band energies     occupation 
      1     -10.8614      2.00000
      2     -10.6172      2.00000
      3      -4.5348      2.00000
      4      -4.5266      2.00000
      5      -4.5207      2.00000
      6      -4.4876      2.00000
      7      -4.4803      2.00000
      8      -4.3233      2.00000
      9      -4.1904      2.00000
     10      -4.1691      2.00000
     11      -4.1423      2.00000
     12      -4.1039      2.00000
     13      -2.6134      2.00000
     14      -1.9865      2.00000
     15      -0.3212      2.00000
     16       0.3693      2.00000
     17       0.9525      2.00000
     18       1.5395      2.00000
     19       6.0417      0.00000
     20       6.6106      0.00000
     21       7.8633      0.00000
     22       8.3962      0.00000
     23       8.9828      0.00000
     24       9.3526      0.00000

 k-point    19 :       0.0000    0.4286    0.1429
  band No.  band energies     occupation 
      1     -10.7720      2.00000
      2     -10.4793      2.00000
      3      -4.5904      2.00000
      4      -4.5147      2.00000
      5      -4.4908      2.00000
      6      -4.4561      2.00000
      7      -4.4353      2.00000
      8      -4.2832      2.00000
      9      -4.1815      2.00000
     10      -4.1675      2.00000
     11      -4.1370      2.00000
     12      -4.0295      2.00000
     13      -2.5836      2.00000
     14      -1.7824      2.00000
     15      -0.9590      2.00000
     16      -0.1220      2.00000
     17       0.3609      2.00000
     18       0.9267      2.00000
     19       6.9924      0.00000
     20       7.0598      0.00000
     21       7.3101      0.00000
     22       7.9049      0.00000
     23       8.6119      0.00000
     24       8.7378      0.00000

 k-point    20 :       0.2000    0.4286    0.1429
  band No.  band energies     occupation 
      1     -10.7378      2.00000
      2     -10.4999      2.00000
      3      -4.5659      2.00000
      4      -4.5216      2.00000
      5      -4.4870      2.00000
      6      -4.4603      2.00000
      7      -4.4167      2.00000
      8      -4.2588      2.00000
      9      -4.1611      2.00000
     10      -4.1598      2.00000
     11      -4.1416      2.00000
     12      -3.9833      2.00000
     13      -2.9918      2.00000
     14      -2.2863      2.00000
     15      -0.4788      2.00000
     16       0.3670      2.00000
     17       0.5544      2.00000
     18       0.8927      2.00000
     19       6.1369      0.00000
     20       6.6937      0.00000
     21       7.7274      0.00000
     22       7.8674      0.00000
     23       9.2772      0.00000
     24       9.6495      0.00000

 k-point    21 :       0.4000    0.4286    0.1429
  band No.  band energies     occupation 
      1     -10.6535      2.00000
      2     -10.5620      2.00000
      3      -4.5292      2.00000
      4      -4.5238      2.00000
      5      -4.5022      2.00000
      6      -4.4869      2.00000
      7      -4.2830      2.00000
      8      -4.2094      2.00000
      9      -4.1589      2.00000
     10      -4.1562      2.00000
     11      -4.1063      2.00000
     12      -3.9570      2.00000
     13      -3.3475      2.00000
     14      -2.9890      2.00000
     15       0.1332      2.00000
     16       0.5314      2.00000
     17       1.0033      2.00000
     18       1.0797      2.00000
     19       5.7963      0.00000
     20       5.9663      0.00000
     21       8.0028      0.00000
     22       8.0268      0.00000
     23       9.1943      0.00000
     24       9.2962      0.00000

 k-point    22 :       0.0000    0.2857    0.2857
  band No.  band energies     occupation 
      1     -10.8808      2.00000
      2     -10.3087      2.00000
      3      -4.6888      2.00000
      4      -4.5264      2.00000
      5      -4.4606      2.00000
      6      -4.4592      2.00000
      7      -4.3684      2.00000
      8      -4.2524      2.00000
      9      -4.2055      2.00000
     10      -4.1922      2.00000
     11      -4.1397      2.00000
     12      -3.7995      2.00000
     13      -2.8797      2.00000
     14      -1.1901      2.00000
     15      -0.8593      2.00000
     16      -0.8321      2.00000
     17       0.5638      2.00000
     18       0.5676      2.00000
     19       5.7252      0.00000
     20       6.4259      0.00000
     21       7.3430      0.00000
     22       7.9451      0.00000
     23       9.7345      0.00000
     24      10.1883      0.00000

 k-point    23 :       0.2000    0.2857    0.2857
  band No.  band energies     occupation 
      1     -10.8257      2.00000
      2     -10.3620      2.00000
      3      -4.6393      2.00000
      4      -4.5257      2.00000
      5      -4.4769      2.00000
      6      -4.4495      2.00000
      7      -4.4026      2.00000
      8      -4.2255      2.00000
      9      -4.1907      2.00000
     10      -4.1895      2.00000
     11      -4.1396      2.00000
     12      -3.8591      2.00000
     13      -2.8706      2.00000
     14      -1.5240      2.00000
     15      -1.2802      2.00000
     16       0.0490      2.00000
     17       0.1863      2.00000
     18       0.7830      2.00000
     19       6.4173      0.00000
     20       6.6260      0.00000
     21       6.7737      0.00000
     22       8.5962      0.00000
     23       9.2953      0.00000
     24       9.7671      0.00000

 k-point    24 :       0.4000    0.2857    0.2857
  band No.  band energies     occupation 
      1     -10.6813      2.00000
      2     -10.5037      2.00000
      3      -4.5228      2.00000
      4      -4.5183      2.00000
      5      -4.5043      2.00000
      6      -4.4467      2.00000
      7      -4.3909      2.00000
      8      -4.2401      2.00000
      9      -4.1849      2.00000
     10      -4.1817      2.00000
     11      -4.1221      2.00000
     12      -4.0548      2.00000
     13      -2.6400      2.00000
     14      -2.1330      2.00000
     15      -1.1110      2.00000
     16      -0.5349      2.00000
     17       0.8499      2.00000
     18       1.0463      2.00000
     19       6.3367      0.00000
     20       6.9153      0.00000
     21       8.0544      0.00000
     22       8.5716      0.00000
     23       8.9001      0.00000
     24       9.9492      0.00000

 k-point    25 :       0.0000    0.4286    0.2857
  band No.  band energies     occupation 
      1     -10.5855      2.00000
      2     -10.3724      2.00000
      3      -4.6578      2.00000
      4      -4.5798      2.00000
      5      -4.4058      2.00000
      6      -4.3822      2.00000
      7      -4.3816      2.00000
      8      -4.3049      2.00000
      9      -4.1449      2.00000
     10      -4.1416      2.00000
[...]
  --------------------------------------------------------------------------------------
       0.000       0.000       0.000
       0.000       0.000       0.000
       0.000       0.000       0.000

 plasma frequency squared (from intraband transitions)
  --------------------------------------------------------------------------------------


 plasma frequency squared (from interband transitions, int dw w eps(2)(w)
  --------------------------------------------------------------------------------------
     213.634      -0.000       0.000
      -0.000     215.360       0.000
      -0.000       0.000     215.360
  --------------------------------------------------------------------------------------
 plasma frequency squared  (valence only):     596.476

  frequency dependent IMAGINARY DIELECTRIC FUNCTION (independent particle, no local field effects)
     E(ev)      X         Y         Z        XY        YZ        ZX
  --------------------------------------------------------------------------------------
    0.000000    0.000000    0.000000    0.000000    0.000000    0.000000    0.000000
    0.296561    0.027541    0.029333    0.029333   -0.000000    0.000000    0.000000
    0.593123    0.062954    0.066922    0.066922   -0.000000    0.000000    0.000000
    0.889684    0.126702    0.134031    0.134031   -0.000000    0.000000    0.000000
    1.186245    0.334294    0.350404    0.350404   -0.000000    0.000000    0.000000
    1.482807    2.809348    2.909822    2.909822   -0.000000    0.000000    0.000000
    1.779368    0.693535    0.718273    0.718273   -0.000000    0.000000    0.000000
    2.075929    0.328572    0.409402    0.409402   -0.000000    0.000000    0.000000
    2.372491    0.397689    0.800526    0.800526   -0.000000    0.000000    0.000000
    2.669052    0.898326    2.529488    2.529488   -0.000000    0.000000    0.000000
    2.965613    4.441819    3.192734    3.192734   -0.000000    0.000000    0.000000
    3.262175    2.090208    3.777396    3.777396   -0.000000    0.000000    0.000000
    3.558736    5.281561    8.080408    8.080408   -0.000000    0.000000    0.000000
    3.855297    8.749125    6.840129    6.840129   -0.000000    0.000000    0.000000
    4.151859    2.438637    5.113248    5.113248   -0.000000    0.000000    0.000000
    4.448420    7.652247    5.689679    5.689679   -0.000000    0.000000    0.000000
    4.744981   12.412637    7.592643    7.592643    0.000000    0.000000    0.000000
    5.041543    8.663304   11.388730   11.388730    0.000000    0.000000    0.000000
    5.338104   12.323154   14.875276   14.875276   -0.000000    0.000000    0.000000
    5.634665   18.259187   16.034409   16.034409   -0.000000    0.000000    0.000000
    5.931227   11.415000   10.159802   10.159802   -0.000000    0.000000    0.000000
    6.227788    9.418540    8.517669    8.517669    0.000000    0.000000    0.000000
    6.524349   10.642590    6.562529    6.562529    0.000000    0.000000   -0.000000
    6.820911    8.969532    9.608211    9.608211   -0.000000    0.000000   -0.000000
    7.117472    7.030817   11.706368   11.706368    0.000000    0.000000   -0.000000
    7.414033    8.617452    8.625271    8.625271    0.000000    0.000000   -0.000000
    7.710595    5.361019    5.403493    5.403493    0.000000    0.000000   -0.000000
    8.007156    5.171647    4.962219    4.962219    0.000000    0.000000   -0.000000
    8.303717    4.123590    4.554717    4.554717    0.000000    0.000000   -0.000000
    8.600279    3.041120    3.142376    3.142376    0.000000    0.000000   -0.000000
    8.896840    3.625560    2.383847    2.383847    0.000000    0.000000   -0.000000
    9.193401    2.220049    1.829191    1.829191   -0.000000    0.000000    0.000000
    9.489963    1.696404    1.907114    1.907114   -0.000000    0.000000    0.000000
    9.786524    1.682231    1.749981    1.749981   -0.000000    0.000000   -0.000000
   10.083085    1.375509    1.439401    1.439401    0.000000    0.000000   -0.000000
   10.379647    1.288523    1.429538    1.429538    0.000000    0.000000    0.000000
   10.676208    1.061835    1.225333    1.225333    0.000000    0.000000    0.000000
   10.972769    1.102444    1.088899    1.088899    0.000000    0.000000   -0.000000
   11.269331    0.844622    0.791506    0.791506    0.000000    0.000000   -0.000000
   11.565892    0.613022    0.622147    0.622147   -0.000000    0.000000   -0.000000
   11.862453    0.401812    0.386887    0.386887    0.000000    0.000000    0.000000
   12.159015    0.517372    0.504062    0.504062    0.000000    0.000000    0.000000
   12.455576    0.492240    0.461119    0.461119    0.000000    0.000000    0.000000
   12.752137    0.463658    0.499424    0.499424    0.000000    0.000000    0.000000
   13.048699    0.375474    0.468856    0.468856    0.000000    0.000000    0.000000
   13.345260    0.411062    0.415343    0.415343   -0.000000    0.000000    0.000000
   13.641821    0.332485    0.322853    0.322853    0.000000    0.000000    0.000000
   13.938383    0.239283    0.242131    0.242131    0.000000    0.000000    0.000000
   14.234944    0.141301    0.170843    0.170843   -0.000000    0.000000    0.000000
   14.531505    0.120462    0.099324    0.099324   -0.000000    0.000000   -0.000000
   14.828067    0.077929    0.071816    0.071816   -0.000000    0.000000    0.000000
   15.124628    0.062304    0.052689    0.052689   -0.000000    0.000000    0.000000
   15.421189    0.036717    0.049794    0.049794    0.000000    0.000000    0.000000
   15.717751    0.036479    0.041951    0.041951   -0.000000    0.000000    0.000000
   16.014312    0.044204    0.040753    0.040753   -0.000000    0.000000    0.000000
   16.310873    0.046805    0.051780    0.051780    0.000000    0.000000   -0.000000
   16.607435    0.054056    0.055288    0.055288    0.000000    0.000000   -0.000000
   16.903996    0.056277    0.067121    0.067121    0.000000    0.000000    0.000000
   17.200557    0.077187    0.065572    0.065572   -0.000000    0.000000    0.000000
   17.497119    0.050783    0.043153    0.043153   -0.000000    0.000000    0.000000
   17.793680    0.048304    0.043314    0.043314   -0.000000    0.000000    0.000000
   18.090241    0.022871    0.027729    0.027729    0.000000    0.000000   -0.000000
   18.386803    0.031600    0.036110    0.036110    0.000000    0.000000   -0.000000
   18.683364    0.037505    0.038652    0.038652   -0.000000    0.000000   -0.000000
   18.979925    0.023431    0.023359    0.023359   -0.000000    0.000000   -0.000000
   19.276487    0.024821    0.025890    0.025890    0.000000    0.000000   -0.000000
   19.573048    0.020095    0.023079    0.023079    0.000000    0.000000    0.000000
   19.869609    0.038226    0.031827    0.031827   -0.000000    0.000000    0.000000
   20.166171    0.022925    0.023819    0.023819   -0.000000    0.000000    0.000000
   20.462732    0.019121    0.018004    0.018004   -0.000000    0.000000   -0.000000
   20.759293    0.012143    0.010920    0.010920   -0.000000    0.000000    0.000000
   21.055855    0.007759    0.008029    0.008029   -0.000000    0.000000    0.000000
   21.352416    0.007939    0.007050    0.007050   -0.000000    0.000000    0.000000
   21.648977    0.006590    0.006703    0.006703   -0.000000    0.000000    0.000000
   21.945539    0.005674    0.005713    0.005713   -0.000000    0.000000    0.000000
   22.242100    0.005341    0.005398    0.005398   -0.000000    0.000000    0.000000
   22.538661    0.005293    0.005442    0.005442   -0.000000    0.000000    0.000000
   22.835223    0.004779    0.004795    0.004795   -0.000000    0.000000    0.000000
   23.131784    0.004854    0.004557    0.004557   -0.000000    0.000000    0.000000
   23.428345    0.004347    0.004336    0.004336   -0.000000    0.000000    0.000000
   23.724907    0.004084    0.004106    0.004106   -0.000000    0.000000    0.000000
   24.021468    0.003889    0.003917    0.003917   -0.000000    0.000000    0.000000
   24.318029    0.003715    0.003744    0.003744   -0.000000    0.000000    0.000000
   24.614591    0.003554    0.003582    0.003582   -0.000000    0.000000    0.000000
   24.911152    0.003404    0.003432    0.003432   -0.000000    0.000000    0.000000
   25.207713    0.003263    0.003290    0.003290   -0.000000    0.000000    0.000000
   25.504275    0.003131    0.003157    0.003157   -0.000000    0.000000    0.000000
   25.800836    0.003007    0.003032    0.003032   -0.000000    0.000000    0.000000
   26.097397    0.002890    0.002914    0.002914   -0.000000    0.000000    0.000000
   26.393959    0.002779    0.002802    0.002802   -0.000000    0.000000    0.000000
   26.690520    0.002674    0.002696    0.002696   -0.000000    0.000000    0.000000
   26.987081    0.002575    0.002596    0.002596   -0.000000    0.000000    0.000000
   27.283643    0.002481    0.002501    0.002501   -0.000000    0.000000    0.000000
   27.580204    0.002391    0.002411    0.002411   -0.000000    0.000000    0.000000
   27.876765    0.002306    0.002326    0.002326   -0.000000    0.000000    0.000000
   28.173327    0.002226    0.002244    0.002244   -0.000000    0.000000    0.000000
   28.469888    0.002149    0.002167    0.002167   -0.000000    0.000000    0.000000
   28.766449    0.002075    0.002093    0.002093   -0.000000    0.000000    0.000000
   29.063011    0.002006    0.002023    0.002023   -0.000000    0.000000    0.000000
   29.359572    0.001939    0.001955    0.001955   -0.000000    0.000000    0.000000

  frequency dependent      REAL DIELECTRIC FUNCTION (independent particle, no local field effects)
     E(ev)      X         Y         Z        XY        YZ        ZX
  --------------------------------------------------------------------------------------
    0.000000    7.469282    7.657574    7.657574   -0.000000    0.000000    0.000000
    0.296561    7.508951    7.699833    7.699833   -0.000000    0.000000    0.000000
    0.593123    7.638154    7.837345    7.837345   -0.000000    0.000000    0.000000
    0.889684    7.901037    8.116266    8.116266   -0.000000    0.000000    0.000000
    1.186245    8.465868    8.711254    8.711254   -0.000000    0.000000    0.000000
    1.482807    9.354686    9.582159    9.582159   -0.000000    0.000000    0.000000
    1.779368    6.757399    7.100596    7.100596   -0.000000    0.000000    0.000000
    2.075929    7.899152    8.383746    8.383746   -0.000000    0.000000    0.000000
    2.372491    8.895737    9.813938    9.813938   -0.000000    0.000000    0.000000
    2.669052   10.471179    8.850270    8.850270   -0.000000    0.000000    0.000000
    2.965613   10.968147   11.505218   11.505218   -0.000000    0.000000    0.000000
    3.262175    8.866843    9.123619    9.123619   -0.000000    0.000000    0.000000
    3.558736   14.123346   10.042591   10.042591   -0.000000    0.000000    0.000000
    3.855297    6.028258    8.816630    8.816630    0.000000    0.000000    0.000000
    4.151859    8.361140    9.116723    9.116723   -0.000000    0.000000    0.000000
    4.448420   14.770722    9.131830    9.131830   -0.000000    0.000000    0.000000
    4.744981    5.366307    9.153955    9.153955    0.000000    0.000000    0.000000
    5.041543    7.178929   11.884095   11.884095   -0.000000    0.000000    0.000000
    5.338104    9.208080    8.477559    8.477559   -0.000000    0.000000   -0.000000
    5.634665    1.798286   -1.470573   -1.470573    0.000000    0.000000   -0.000000
    5.931227   -3.051349   -2.541587   -2.541587    0.000000    0.000000   -0.000000
    6.227788   -0.658301   -2.775073   -2.775073    0.000000    0.000000   -0.000000
    6.524349   -1.314564    0.075396    0.075396    0.000000    0.000000   -0.000000
    6.820911   -1.487669    2.902881    2.902881    0.000000    0.000000   -0.000000
    7.117472   -2.436998   -1.970786   -1.970786    0.000000    0.000000    0.000000
    7.414033   -3.599644   -4.634530   -4.634530    0.000000    0.000000    0.000000
    7.710595   -4.086100   -4.813266   -4.813266    0.000000    0.000000    0.000000
    8.007156   -3.289618   -4.159754   -4.159754    0.000000    0.000000    0.000000
    8.303717   -4.747978   -4.539810   -4.539810   -0.000000    0.000000    0.000000
    8.600279   -3.684812   -3.848635   -3.848635   -0.000000    0.000000   -0.000000
    8.896840   -3.707294   -3.795117   -3.795117   -0.000000    0.000000    0.000000
    9.193401   -3.929242   -3.116491   -3.116491   -0.000000    0.000000    0.000000
    9.489963   -2.764464   -2.484780   -2.484780   -0.000000    0.000000    0.000000
    9.786524   -2.331016   -2.309045   -2.309045    0.000000    0.000000   -0.000000
   10.083085   -2.133639   -2.098240   -2.098240    0.000000    0.000000    0.000000
   10.379647   -2.298904   -2.253792   -2.253792   -0.000000    0.000000    0.000000
   10.676208   -1.984280   -2.231126   -2.231126   -0.000000    0.000000   -0.000000
   10.972769   -1.757252   -1.861161   -1.861161   -0.000000    0.000000   -0.000000
   11.269331   -1.776165   -1.758726   -1.758726   -0.000000    0.000000    0.000000
   11.565892   -1.644409   -1.731733   -1.731733    0.000000    0.000000    0.000000
   11.862453   -1.172844   -1.277593   -1.277593    0.000000    0.000000    0.000000
   12.159015   -1.007863   -1.033428   -1.033428    0.000000    0.000000    0.000000
   12.455576   -0.977239   -0.951022   -0.951022    0.000000    0.000000    0.000000
   12.752137   -0.939287   -0.934542   -0.934542    0.000000    0.000000    0.000000
   13.048699   -0.816856   -0.815970   -0.815970    0.000000    0.000000    0.000000
   13.345260   -0.738384   -0.812448   -0.812448    0.000000    0.000000    0.000000
   13.641821   -0.732060   -0.728095   -0.728095    0.000000    0.000000   -0.000000
   13.938383   -0.684333   -0.713301   -0.713301    0.000000    0.000000   -0.000000
   14.234944   -0.571795   -0.596586   -0.596586    0.000000    0.000000   -0.000000
   14.531505   -0.452357   -0.473872   -0.473872    0.000000    0.000000   -0.000000
   14.828067   -0.368155   -0.380687   -0.380687    0.000000    0.000000   -0.000000
   15.124628   -0.291055   -0.293009   -0.293009    0.000000    0.000000   -0.000000
   15.421189   -0.198617   -0.210838   -0.210838    0.000000    0.000000   -0.000000
   15.717751   -0.126350   -0.134611   -0.134611    0.000000    0.000000   -0.000000
   16.014312   -0.060729   -0.067889   -0.067889    0.000000    0.000000   -0.000000
   16.310873    0.002709   -0.010695   -0.010695    0.000000    0.000000   -0.000000
   16.607435    0.039041    0.026785    0.026785    0.000000    0.000000    0.000000
   16.903996    0.073280    0.065679    0.065679    0.000000    0.000000   -0.000000
   17.200557    0.108478    0.095244    0.095244    0.000000    0.000000   -0.000000
   17.497119    0.120898    0.124267    0.124267    0.000000    0.000000   -0.000000
   17.793680    0.157111    0.151638    0.151638    0.000000    0.000000   -0.000000
   18.090241    0.205487    0.201488    0.201488    0.000000    0.000000   -0.000000
   18.386803    0.238099    0.230007    0.230007    0.000000    0.000000   -0.000000
   18.683364    0.261752    0.250694    0.250694    0.000000    0.000000    0.000000
   18.979925    0.282893    0.277223    0.277223    0.000000    0.000000    0.000000
   19.276487    0.319348    0.312584    0.312584    0.000000    0.000000    0.000000
   19.573048    0.342655    0.336238    0.336238    0.000000    0.000000    0.000000
   19.869609    0.360178    0.355540    0.355540    0.000000    0.000000    0.000000
   20.166171    0.374256    0.368789    0.368789    0.000000    0.000000   -0.000000
   20.462732    0.394567    0.388584    0.388584    0.000000    0.000000   -0.000000
   20.759293    0.414791    0.409385    0.409385    0.000000    0.000000   -0.000000
   21.055855    0.436792    0.431581    0.431581    0.000000    0.000000   -0.000000
   21.352416    0.456482    0.452179    0.452179    0.000000    0.000000   -0.000000
   21.648977    0.474628    0.470410    0.470410    0.000000    0.000000   -0.000000
   21.945539    0.491933    0.487735    0.487735    0.000000    0.000000   -0.000000
   22.242100    0.508179    0.504107    0.504107    0.000000    0.000000   -0.000000
   22.538661    0.523063    0.518959    0.518959    0.000000    0.000000   -0.000000
   22.835223    0.537536    0.533520    0.533520    0.000000    0.000000   -0.000000
   23.131784    0.551296    0.547320    0.547320    0.000000    0.000000   -0.000000
   23.428345    0.563841    0.560364    0.560364    0.000000    0.000000   -0.000000
   23.724907    0.576282    0.572811    0.572811    0.000000    0.000000   -0.000000
   24.021468    0.588095    0.584701    0.584701    0.000000    0.000000   -0.000000
   24.318029    0.599366    0.596055    0.596055    0.000000    0.000000   -0.000000
   24.614591    0.610140    0.606914    0.606914    0.000000    0.000000   -0.000000
   24.911152    0.620454    0.617311    0.617311    0.000000    0.000000   -0.000000
   25.207713    0.630336    0.627275    0.627275    0.000000    0.000000   -0.000000
   25.504275    0.639816    0.636832    0.636832    0.000000    0.000000   -0.000000
   25.800836    0.648915    0.646007    0.646007    0.000000    0.000000   -0.000000
   26.097397    0.657656    0.654822    0.654822    0.000000    0.000000   -0.000000
   26.393959    0.666059    0.663295    0.663295    0.000000    0.000000   -0.000000
   26.690520    0.674143    0.671446    0.671446    0.000000    0.000000   -0.000000
   26.987081    0.681923    0.679293    0.679293    0.000000    0.000000   -0.000000
   27.283643    0.689418    0.686850    0.686850    0.000000    0.000000   -0.000000
   27.580204    0.696640    0.694133    0.694133    0.000000    0.000000   -0.000000
   27.876765    0.703604    0.701156    0.701156    0.000000    0.000000   -0.000000
   28.173327    0.710322    0.707931    0.707931    0.000000    0.000000   -0.000000
   28.469888    0.716807    0.714470    0.714470    0.000000    0.000000   -0.000000
   28.766449    0.723069    0.720785    0.720785    0.000000    0.000000   -0.000000
   29.063011    0.729120    0.726886    0.726886    0.000000    0.000000   -0.000000
   29.359572    0.734968    0.732784    0.732784    0.000000    0.000000   -0.000000
 
 The outermost node in the dielectric function lies at epsilon=  16.4


--------------------------------------------------------------------------------------------------------


    OPTICS:  cpu time    0.3964: real time    1.2484
    4ORBIT:  cpu time    0.0000: real time    0.0000
 


 total charge     
 
# of ion     s       p       d       tot
----------------------------------------
  1        0.561   0.527   9.794  10.881
  2        0.561   0.527   9.794  10.881
  3        1.435   2.466   0.040   3.940
  4        1.435   2.466   0.040   3.940
------------------------------------------------
tot        3.991   5.984  19.667  29.642
 

 total amount of memory used by VASP on root node    53833. kBytes
========================================================================

   base      :      30000. kBytes
   nonl-proj :      18487. kBytes
   fftplans  :        207. kBytes
   grid      :        873. kBytes
   one-center:         62. kBytes
   wavefun   :       4204. kBytes
 
  
  
 General timing and accounting informations for this job:
 ========================================================
  
                  Total CPU time used (sec):        8.114
                            User time (sec):        7.192
                          System time (sec):        0.922
                         Elapsed time (sec):       25.636
  
                   Maximum memory used (kb):    82833408.
                   Average memory used (kb):           0.
  
                          Minor page faults:        20674
                          Major page faults:          426
                 Voluntary context switches:          705
