 vasp.5.4.1 24Jun15 (build Sep 15 2015 10:29:54) complex

 executed on           IFC91_ompi date 2015.10.08  16:55:10
 running on    4 total cores
 distrk:  each k-point on    1 cores,    4 groups
 distr:  one band on NCORES_PER_BAND=   1 cores,    1 groups


--------------------------------------------------------------------------------------------------------


 INCAR:
 POTCAR:    PAW_PBE Zn 06Sep2000
 POTCAR:    PAW_PBE S 06Sep2000

 -----------------------------------------------------------------------------
|                                                                             |
|           W    W    AA    RRRRR   N    N  II  N    N   GGGG   !!!           |
|           W    W   A  A   R    R  NN   N  II  NN   N  G    G  !!!           |
|           W    W  A    A  R    R  N N  N  II  N N  N  G       !!!           |
|           W WW W  AAAAAA  RRRRR   N  N N  II  N  N N  G  GGG   !            |
|           WW  WW  A    A  R   R   N   NN  II  N   NN  G    G                |
|           W    W  A    A  R    R  N    N  II  N    N   GGGG   !!!           |
|                                                                             |
|      You have enabled k-point parallelism (KPAR>1).                         |
|      This developmental code was originally  written by Paul Kent at ORNL,  |
|      and carefully double checked in Vienna.                                |
|      GW as well as linear response parallelism added by Martijn Marsman     |
|      and Georg Kresse.                                                      |
|      Carefully verify results versus KPAR=1.                                |
|      Report problems to Paul Kent and Vienna.                               |
|                                                                             |
 -----------------------------------------------------------------------------

 POTCAR:    PAW_PBE Zn 06Sep2000
   VRHFIN =Zn: d10 p2
   LEXCH  = PE
   EATOM  =  1748.8345 eV,  128.5357 Ry

   TITEL  = PAW_PBE Zn 06Sep2000
   LULTRA =        F    use ultrasoft PP ?
   IUNSCR =        1    unscreen: 0-lin 1-nonlin 2-no
   RPACOR =    2.000    partial core radius
   POMASS =   65.390; ZVAL   =   12.000    mass and valenz
   RCORE  =    2.300    outmost cutoff radius
   RWIGS  =    2.400; RWIGS  =    1.270    wigner-seitz radius (au A)
   ENMAX  =  276.723; ENMIN  =  207.542 eV
   RCLOC  =    1.828    cutoff for local pot
   LCOR   =        T    correct aug charges
   LPAW   =        T    paw PP
   EAUG   =  575.892
   DEXC   =    0.000
   RMAX   =    2.347    core radius for proj-oper
   RAUG   =    1.300    factor for augmentation sphere
   RDEP   =    2.324    radius for radial grids
   RDEPT  =    1.788    core radius for aug-charge

   Atomic configuration
    9 entries
     n  l   j            E        occ.
     1  0  0.50     -9524.6913   2.0000
     2  0  0.50     -1158.1882   2.0000
     2  1  1.50     -1003.8506   6.0000
     3  0  0.50      -129.2194   2.0000
     3  1  1.50       -83.3890   6.0000
     3  2  2.50       -10.1410  10.0000
     4  0  0.50        -5.9785   2.0000
     4  1  0.50        -4.0817   0.0000
     4  3  2.50        -1.3606   0.0000
   Description
     l       E           TYP  RCUT    TYP  RCUT
     2    -10.1410010     23  2.300
     2    -11.5015836     23  2.300
     0     -5.9785163     23  2.300
     0      1.1858015     23  2.300
     1     -2.7211652     23  2.300
     1     13.2444212     23  2.300
  local pseudopotential read in
  partial core-charges read in
  partial kinetic energy density read in
  atomic valenz-charges read in
  non local Contribution for L=           2  read in
    real space projection operators read in
  non local Contribution for L=           2  read in
    real space projection operators read in
  non local Contribution for L=           0  read in
    real space projection operators read in
  non local Contribution for L=           0  read in
    real space projection operators read in
  non local Contribution for L=           1  read in
    real space projection operators read in
  non local Contribution for L=           1  read in
    real space projection operators read in
    PAW grid and wavefunctions read in

   number of l-projection  operators is LMAX  =           6
   number of lm-projection operators is LMMAX =          18

 POTCAR:    PAW_PBE S 06Sep2000
   VRHFIN =S : s2p4
   LEXCH  = PE
   EATOM  =   276.8230 eV,   20.3459 Ry

   TITEL  = PAW_PBE S 06Sep2000
   LULTRA =        F    use ultrasoft PP ?
   IUNSCR =        1    unscreen: 0-lin 1-nonlin 2-no
   RPACOR =    1.500    partial core radius
   POMASS =   32.066; ZVAL   =    6.000    mass and valenz
   RCORE  =    1.900    outmost cutoff radius
   RWIGS  =    2.200; RWIGS  =    1.164    wigner-seitz radius (au A)
   ENMAX  =  258.689; ENMIN  =  194.016 eV
   ICORE  =        2    local potential
   LCOR   =        T    correct aug charges
   LPAW   =        T    paw PP
   EAUG   =  335.092
   DEXC   =    0.000
   RMAX   =    1.942    core radius for proj-oper
   RAUG   =    1.300    factor for augmentation sphere
   RDEP   =    1.954    radius for radial grids
   RDEPT  =    1.744    core radius for aug-charge

   Atomic configuration
    6 entries
     n  l   j            E        occ.
     1  0  0.50     -2405.8406   2.0000
     2  0  0.50      -211.7007   2.0000
     2  1  1.50      -156.4958   6.0000
     3  0  0.50       -17.2562   2.0000
     3  1  0.50        -7.0085   4.0000
     3  2  1.50        -6.8029   0.0000
   Description
     l       E           TYP  RCUT    TYP  RCUT
     0    -17.2561641     23  1.900
     0    -15.8743224     23  1.900
     1     -7.0085400     23  1.900
     1     -2.7779785     23  1.900
     2     -6.8029130     23  1.900
  local pseudopotential read in
  partial core-charges read in
  partial kinetic energy density read in
  atomic valenz-charges read in
  non local Contribution for L=           0  read in
    real space projection operators read in
  non local Contribution for L=           0  read in
    real space projection operators read in
  non local Contribution for L=           1  read in
    real space projection operators read in
  non local Contribution for L=           1  read in
    real space projection operators read in
    PAW grid and wavefunctions read in

   number of l-projection  operators is LMAX  =           4
   number of lm-projection operators is LMMAX =           8


 -----------------------------------------------------------------------------
|                                                                             |
|  ADVICE TO THIS USER RUNNING 'VASP/VAMP'   (HEAR YOUR MASTER'S VOICE ...):  |
|                                                                             |
|      You enforced a specific xc-type in the INCAR file,                     |
|      a different type was found on the POTCAR file                          |
|          I HOPE YOU KNOW, WHAT YOU ARE  DOING                               |
|                                                                             |
 -----------------------------------------------------------------------------

  PAW_PBE Zn 06Sep2000                  :
 energy of atom  1       EATOM=-1748.8345
 kinetic energy error for atom=    0.0029 (will be added to EATOM!!)
  PAW_PBE S 06Sep2000                   :
 energy of atom  2       EATOM= -276.8230
 kinetic energy error for atom=    0.0020 (will be added to EATOM!!)


 POSCAR: Zn S
  positions in direct lattice
  velocities in cartesian coordinates
 exchange correlation table for  LEXCH =       14
   RHO(1)=    0.500       N(1)  =     2000
   RHO(2)=  100.500       N(2)  =     4000



--------------------------------------------------------------------------------------------------------


 ion  position               nearest neighbor table
   1  0.000  0.000  0.000-   3 2.32   4 2.32   4 2.32   3 2.32
   2  0.500  0.500  0.500-   3 2.32   4 2.32   3 2.32   4 2.32
   3  0.250  0.500  0.000-   1 2.32   2 2.32   2 2.32   1 2.32
   4  0.750  0.000  0.500-   1 2.32   2 2.32   1 2.32   2 2.32

  LATTYP: Found a simple tetragonal cell.
 ALAT       =     3.7844987492
 C/A-ratio  =     1.4183522045

  Lattice vectors:

 A1 = (   0.0000000000,   3.7844987492,   0.0000000000)
 A2 = (   0.0000000000,   0.0000000000,  -3.7844987492)
 A3 = (  -5.3677521439,   0.0000000000,   0.0000000000)


Analysis of symmetry for initial positions (statically):
=====================================================================
 Subroutine PRICEL returns following result:

  LATTYP: Found a body centered tetragonal cell.
 ALAT       =     3.7844987492
 C/A-ratio  =     1.4183522045

  Lattice vectors:

 A1 = (   2.6838760719,   1.8922493746,  -1.8922493746)
 A2 = (   2.6838760719,  -1.8922493746,   1.8922493746)
 A3 = (  -2.6838760719,  -1.8922493746,  -1.8922493746)

   2 primitive cells build up your supercell.


 Routine SETGRP: Setting up the symmetry group for a
 simple tetragonal supercell.


 Subroutine GETGRP returns: Found  8 space group operations
 (whereof  8 operations were pure point group operations)
 out of a pool of 16 trial point group operations.


The static configuration has the point symmetry D_2d.


Analysis of symmetry for dynamics (positions and initial velocities):
=====================================================================
 Subroutine PRICEL returns following result:

  LATTYP: Found a body centered tetragonal cell.
 ALAT       =     3.7844987492
 C/A-ratio  =     1.4183522045

  Lattice vectors:

 A1 = (   2.6838760719,   1.8922493746,  -1.8922493746)
 A2 = (   2.6838760719,  -1.8922493746,   1.8922493746)
 A3 = (  -2.6838760719,  -1.8922493746,  -1.8922493746)

   2 primitive cells build up your supercell.


 Routine SETGRP: Setting up the symmetry group for a
 simple tetragonal supercell.


 Subroutine GETGRP returns: Found  8 space group operations
 (whereof  8 operations were pure point group operations)
 out of a pool of 16 trial point group operations.


The dynamic configuration has the point symmetry D_2d.


 KPOINTS: Automatically generated k-point mesh

Automatic generation of k-mesh.
Space group operators:
 irot       det(A)        alpha          n_x          n_y          n_z        tau_x        tau_y        tau_z
    1     1.000000     0.000000     1.000000     0.000000     0.000000     0.000000     0.000000     0.000000
    2    -1.000000    90.000000     1.000000     0.000000     0.000000     0.000000     0.000000     0.000000
    3     1.000000   180.000000     1.000000     0.000000     0.000000     0.000000     0.000000     0.000000
    4    -1.000000    90.000000    -1.000000     0.000000     0.000000     0.000000     0.000000     0.000000
    5    -1.000000   180.000000     0.000000     0.000000     1.000000     0.000000     0.000000     0.000000
    6     1.000000   180.000000     0.000000    -0.707107     0.707107     0.000000     0.000000     0.000000
    7    -1.000000   180.000000     0.000000     1.000000     0.000000     0.000000     0.000000     0.000000
    8     1.000000   180.000000     0.000000     0.707107     0.707107     0.000000     0.000000     0.000000

 Subroutine IBZKPT returns following result:
 ===========================================

 Found     30 irreducible k-points:

 Following reciprocal coordinates:
            Coordinates               Weight
  0.000000  0.000000  0.000000      1.000000
  0.200000  0.000000  0.000000      2.000000
  0.400000  0.000000  0.000000      2.000000
  0.000000  0.142857  0.000000      4.000000
  0.200000  0.142857  0.000000      8.000000
  0.400000  0.142857  0.000000      8.000000
  0.000000  0.285714  0.000000      4.000000
  0.200000  0.285714  0.000000      8.000000
  0.400000  0.285714  0.000000      8.000000
  0.000000  0.428571  0.000000      4.000000
  0.200000  0.428571  0.000000      8.000000
  0.400000  0.428571  0.000000      8.000000
  0.000000  0.142857  0.142857      4.000000
  0.200000  0.142857  0.142857      8.000000
  0.400000  0.142857  0.142857      8.000000
  0.000000  0.285714  0.142857      8.000000
  0.200000  0.285714  0.142857     16.000000
  0.400000  0.285714  0.142857     16.000000
  0.000000  0.428571  0.142857      8.000000
  0.200000  0.428571  0.142857     16.000000
  0.400000  0.428571  0.142857     16.000000
  0.000000  0.285714  0.285714      4.000000
  0.200000  0.285714  0.285714      8.000000
  0.400000  0.285714  0.285714      8.000000
  0.000000  0.428571  0.285714      8.000000
  0.200000  0.428571  0.285714     16.000000
  0.400000  0.428571  0.285714     16.000000
  0.000000  0.428571  0.428571      4.000000
  0.200000  0.428571  0.428571      8.000000
  0.400000  0.428571  0.428571      8.000000

 Following cartesian coordinates:
            Coordinates               Weight
  0.000000  0.000000  0.000000      1.000000
  0.037260  0.000000  0.000000      2.000000
  0.074519  0.000000  0.000000      2.000000
  0.000000  0.037748  0.000000      4.000000
  0.037260  0.037748  0.000000      8.000000
  0.074519  0.037748  0.000000      8.000000
  0.000000  0.075496  0.000000      4.000000
  0.037260  0.075496  0.000000      8.000000
  0.074519  0.075496  0.000000      8.000000
  0.000000  0.113244  0.000000      4.000000
  0.037260  0.113244  0.000000      8.000000
  0.074519  0.113244  0.000000      8.000000
  0.000000  0.037748  0.037748      4.000000
  0.037260  0.037748  0.037748      8.000000
  0.074519  0.037748  0.037748      8.000000
  0.000000  0.075496  0.037748      8.000000
  0.037260  0.075496  0.037748     16.000000
  0.074519  0.075496  0.037748     16.000000
  0.000000  0.113244  0.037748      8.000000
  0.037260  0.113244  0.037748     16.000000
  0.074519  0.113244  0.037748     16.000000
  0.000000  0.075496  0.075496      4.000000
  0.037260  0.075496  0.075496      8.000000
  0.074519  0.075496  0.075496      8.000000
  0.000000  0.113244  0.075496      8.000000
  0.037260  0.113244  0.075496     16.000000
  0.074519  0.113244  0.075496     16.000000
  0.000000  0.113244  0.113244      4.000000
  0.037260  0.113244  0.113244      8.000000
  0.074519  0.113244  0.113244      8.000000



--------------------------------------------------------------------------------------------------------




 Dimension of arrays:
   k-points           NKPTS =     30   k-points in BZ     NKDIM =     30   number of bands    NBANDS=     22
   number of dos      NEDOS =    301   number of ions     NIONS =      4
   non local maximal  LDIM  =      6   non local SUM 2l+1 LMDIM =     18
   total plane-waves  NPLWV =  17280
   max r-space proj   IRMAX =      1   max aug-charges    IRDMAX=   1085
   dimension x,y,z NGX =    30 NGY =   24 NGZ =   24
   dimension x,y,z NGXF=    30 NGYF=   24 NGZF=   24
   support grid    NGXF=    30 NGYF=   24 NGZF=   24
   ions per type =               2   2
 NGX,Y,Z   is equivalent  to a cutoff of   9.29, 10.54, 10.54 a.u.
 NGXF,Y,Z  is equivalent  to a cutoff of   9.29, 10.54, 10.54 a.u.


 I would recommend the setting:
   dimension x,y,z NGX =    29 NGY =   21 NGZ =   21
 SYSTEM =  Name
 POSCAR =  Zn S

 Startparameter for this run:
   NWRITE =      2    write-flag & timer
   PREC   = single    normal or accurate (medium, high low for compatibility)
   ISTART =      0    job   : 0-new  1-cont  2-samecut
   ICHARG =      2    charge: 1-file 2-atom 10-const
   ISPIN  =      1    spin polarized calculation?
   LNONCOLLINEAR =      F non collinear calculations
   LSORBIT =      F    spin-orbit coupling
   INIWAV =      1    electr: 0-lowe 1-rand  2-diag
   LASPH  =      F    aspherical Exc in radial PAW
   METAGGA=      F    non-selfconsistent MetaGGA calc.

 Electronic Relaxation 1
   ENCUT  =  500.0 eV  36.75 Ry    6.06 a.u.   9.79  6.90  6.90*2*pi/ulx,y,z
   ENINI  =  500.0     initial cutoff
   ENAUG  =  575.9 eV  augmentation charge cutoff
   NELM   =     60;   NELMIN=  2; NELMDL= -5     # of ELM steps
   EDIFF  = 0.1E-05   stopping-criterion for ELM
   LREAL  =      F    real-space projection
   NLSPLINE    = F    spline interpolate recip. space projectors
   LCOMPAT=      F    compatible to vasp.4.4
   GGA_COMPAT  = T    GGA compatible to vasp.4.4-vasp.4.6
   LMAXPAW     = -100 max onsite density
   LMAXMIX     =    2 max onsite mixed and CHGCAR
   VOSKOWN=      0    Vosko Wilk Nusair interpolation
   ROPT   =    0.00000   0.00000
 Ionic relaxation
   EDIFFG = 0.1E-02   stopping-criterion for IOM
   NSW    =      0    number of steps for IOM
   NBLOCK =      1;   KBLOCK =      1    inner block; outer block
   IBRION =     -1    ionic relax: 0-MD 1-quasi-New 2-CG
   NFREE  =      0    steps in history (QN), initial steepest desc. (CG)
   ISIF   =      3    stress and relaxation
   IWAVPR =     10    prediction:  0-non 1-charg 2-wave 3-comb
   ISYM   =      2    0-nonsym 1-usesym 2-fastsym
   LCORR  =      T    Harris-Foulkes like correction to forces

   POTIM  = 0.5000    time-step for ionic-motion
   TEIN   =    0.0    initial temperature
   TEBEG  =    0.0;   TEEND  =   0.0 temperature during run
   SMASS  =  -3.00    Nose mass-parameter (am)
   estimated Nose-frequenzy (Omega)   =  0.10E-29 period in steps =****** mass=  -0.658E-27a.u.
   SCALEE = 1.0000    scale energy and forces
   NPACO  =    256;   APACO  = 16.0  distance and # of slots for P.C.
   PSTRESS=    0.0 pullay stress

  Mass of Ions in am
   POMASS =  65.39 32.07
  Ionic Valenz
   ZVAL   =  12.00  6.00
  Atomic Wigner-Seitz radii
   RWIGS  =  -1.00 -1.00
  virtual crystal weights
   VCA    =   1.00  1.00
   NELECT =      36.0000    total number of electrons
   NUPDOWN=      -1.0000    fix difference up-down

 DOS related values:
   EMIN   =  10.00;   EMAX   =-10.00  energy-range for DOS
   EFERMI =   0.00
   ISMEAR =     0;   SIGMA  =   0.01  broadening in eV -4-tet -1-fermi 0-gaus

 Electronic relaxation 2 (details)
   IALGO  =     38    algorithm
   LDIAG  =      T    sub-space diagonalisation (order eigenvalues)
   LSUBROT=      F    optimize rotation matrix (better conditioning)
   TURBO    =      0    0=normal 1=particle mesh
   IRESTART =      0    0=no restart 2=restart with 2 vectors
   NREBOOT  =      0    no. of reboots
   NMIN     =      0    reboot dimension
   EREF     =   0.00    reference energy to select bands
   IMIX   =      4    mixing-type and parameters
     AMIX     =   0.40;   BMIX     =  1.00
     AMIX_MAG =   1.60;   BMIX_MAG =  1.00
     AMIN     =   0.01
     WC   =   100.;   INIMIX=   1;  MIXPRE=   1;  MAXMIX= -45

 Intra band minimization:
   WEIMIN = 0.0000     energy-eigenvalue tresh-hold
   EBREAK =  0.11E-07  absolut break condition
   DEPER  =   0.30     relativ break condition

   TIME   =   0.40     timestep for ELM

  volume/ion in A,a.u.               =      19.22       129.70
  Fermi-wavevector in a.u.,A,eV,Ry     =   1.271274  2.402360 21.988897  1.616138
  Thomas-Fermi vector in A             =   2.404216

 Write flags
   LWAVE  =      F    write WAVECAR
   LCHARG =      T    write CHGCAR
   LVTOT  =      F    write LOCPOT, total local potential
   LVHAR  =      T    write LOCPOT, Hartree potential only
   LELF   =      F    write electronic localiz. function (ELF)
   LORBIT =     10    0 simple, 1 ext, 2 COOP (PROOUT)


 Dipole corrections
   LMONO  =      F    monopole corrections only (constant potential shift)
   LDIPOL =      F    correct potential (dipole corrections)
   IDIPOL =      0    1-x, 2-y, 3-z, 4-all directions
   EPSILON=  1.0000000 bulk dielectric constant

 Core level calculations are selected ICORELEVEL =  1
 Exchange correlation treatment:
   GGA     =    PS    GGA type
   LEXCH   =    14    internal setting for exchange type
   VOSKOWN=      0    Vosko Wilk Nusair interpolation
   LHFCALC =     F    Hartree Fock is set to
   LHFONE  =     F    Hartree Fock one center treatment
   AEXX    =    0.0000 exact exchange contribution

 Linear response parameters
   LEPSILON=     F    determine dielectric tensor
   LRPA    =     F    only Hartree local field effects (RPA)
   LNABLA  =     F    use nabla operator in PAW spheres
   LVEL    =     F    velocity operator in full k-point grid
   LINTERFAST=   F  fast interpolation
   KINTER  =     0    interpolate to denser k-point grid
   CSHIFT  =0.1000    complex shift for real part using Kramers Kronig
   OMEGAMAX=  -1.0    maximum frequency
   DEG_THRESHOLD= 0.2000000E-02 threshold for treating states as degnerate
   RTIME   =    0.100 relaxation time in fs

 Orbital magnetization related:
   ORBITALMAG=     F  switch on orbital magnetization
   LCHIMAG   =     F  perturbation theory with respect to B field
   DQ        =  0.001000  dq finite difference perturbation B field



--------------------------------------------------------------------------------------------------------


 Static calculation
 charge density and potential will be updated during run
 non-spin polarized calculation
 Variant of blocked Davidson
 Davidson routine will perform the subspace rotation
 perform sub-space diagonalisation
    after iterative eigenvector-optimisation
 modified Broyden-mixing scheme, WC =      100.0
 initial mixing is a Kerker type mixing with AMIX =  0.4000 and BMIX =      1.0000
 Hartree-type preconditioning will be used
 using additional bands            4
 reciprocal scheme for non local part
 use partial core corrections
 calculate Harris-corrections to forces
   (improved forces if not selfconsistent)
 use gradient corrections
 use of overlap-Matrix (Vanderbilt PP)
 Gauss-broadening in eV      SIGMA  =   0.01


--------------------------------------------------------------------------------------------------------


  energy-cutoff  :      500.00
  volume of cell :       76.88
      direct lattice vectors                 reciprocal lattice vectors
     5.367752144  0.000000000  0.000000000     0.186297723  0.000000000  0.000000000
     0.000000000  3.784498749  0.000000000     0.000000000  0.264235786  0.000000000
     0.000000000  0.000000000  3.784498749     0.000000000  0.000000000  0.264235786

  length of vectors
     5.367752144  3.784498749  3.784498749     0.186297723  0.264235786  0.264235786



 k-points in units of 2pi/SCALE and weight: Automatically generated k-point mesh
   0.00000000  0.00000000  0.00000000       0.004
   0.03725954  0.00000000  0.00000000       0.008
   0.07451909  0.00000000  0.00000000       0.008
   0.00000000  0.03774797  0.00000000       0.016
   0.03725954  0.03774797  0.00000000       0.033
   0.07451909  0.03774797  0.00000000       0.033
   0.00000000  0.07549594  0.00000000       0.016
   0.03725954  0.07549594  0.00000000       0.033
   0.07451909  0.07549594  0.00000000       0.033
   0.00000000  0.11324391  0.00000000       0.016
   0.03725954  0.11324391  0.00000000       0.033
   0.07451909  0.11324391  0.00000000       0.033
   0.00000000  0.03774797  0.03774797       0.016
   0.03725954  0.03774797  0.03774797       0.033
   0.07451909  0.03774797  0.03774797       0.033
   0.00000000  0.07549594  0.03774797       0.033
   0.03725954  0.07549594  0.03774797       0.065
   0.07451909  0.07549594  0.03774797       0.065
   0.00000000  0.11324391  0.03774797       0.033
   0.03725954  0.11324391  0.03774797       0.065
   0.07451909  0.11324391  0.03774797       0.065
   0.00000000  0.07549594  0.07549594       0.016
   0.03725954  0.07549594  0.07549594       0.033
   0.07451909  0.07549594  0.07549594       0.033
   0.00000000  0.11324391  0.07549594       0.033
   0.03725954  0.11324391  0.07549594       0.065
   0.07451909  0.11324391  0.07549594       0.065
   0.00000000  0.11324391  0.11324391       0.016
   0.03725954  0.11324391  0.11324391       0.033
   0.07451909  0.11324391  0.11324391       0.033

 k-points in reciprocal lattice and weights: Automatically generated k-point mesh
   0.00000000  0.00000000  0.00000000       0.004
   0.20000000  0.00000000  0.00000000       0.008
   0.40000000  0.00000000  0.00000000       0.008
   0.00000000  0.14285714  0.00000000       0.016
   0.20000000  0.14285714  0.00000000       0.033
   0.40000000  0.14285714  0.00000000       0.033
   0.00000000  0.28571429  0.00000000       0.016
   0.20000000  0.28571429  0.00000000       0.033
   0.40000000  0.28571429  0.00000000       0.033
   0.00000000  0.42857143  0.00000000       0.016
   0.20000000  0.42857143  0.00000000       0.033
   0.40000000  0.42857143  0.00000000       0.033
   0.00000000  0.14285714  0.14285714       0.016
   0.20000000  0.14285714  0.14285714       0.033
   0.40000000  0.14285714  0.14285714       0.033
   0.00000000  0.28571429  0.14285714       0.033
   0.20000000  0.28571429  0.14285714       0.065
   0.40000000  0.28571429  0.14285714       0.065
   0.00000000  0.42857143  0.14285714       0.033
   0.20000000  0.42857143  0.14285714       0.065
   0.40000000  0.42857143  0.14285714       0.065
   0.00000000  0.28571429  0.28571429       0.016
   0.20000000  0.28571429  0.28571429       0.033
   0.40000000  0.28571429  0.28571429       0.033
   0.00000000  0.42857143  0.28571429       0.033
   0.20000000  0.42857143  0.28571429       0.065
   0.40000000  0.42857143  0.28571429       0.065
   0.00000000  0.42857143  0.42857143       0.016
   0.20000000  0.42857143  0.42857143       0.033
   0.40000000  0.42857143  0.42857143       0.033

 position of ions in fractional coordinates (direct lattice)
   0.00000000  0.00000000  0.00000000
   0.50000000  0.50000000  0.50000000
   0.25000000  0.50000000  0.00000000
   0.75000000  0.00000000  0.50000000

 position of ions in cartesian coordinates  (Angst):
   0.00000000  0.00000000  0.00000000
   2.68387607  1.89224937  1.89224937
   1.34193804  1.89224937  0.00000000
   4.02581411  0.00000000  1.89224937



--------------------------------------------------------------------------------------------------------


 k-point  1 :   0.0000 0.0000 0.0000  plane waves:    1923
 k-point  2 :   0.2000 0.0000 0.0000  plane waves:    1947
 k-point  3 :   0.4000 0.0000 0.0000  plane waves:    1960
 k-point  4 :   0.0000 0.1429 0.0000  plane waves:    1926
 k-point  5 :   0.2000 0.1429 0.0000  plane waves:    1954
 k-point  6 :   0.4000 0.1429 0.0000  plane waves:    1949
 k-point  7 :   0.0000 0.2857 0.0000  plane waves:    1936
 k-point  8 :   0.2000 0.2857 0.0000  plane waves:    1939
 k-point  9 :   0.4000 0.2857 0.0000  plane waves:    1954
 k-point 10 :   0.0000 0.4286 0.0000  plane waves:    1954
 k-point 11 :   0.2000 0.4286 0.0000  plane waves:    1942
 k-point 12 :   0.4000 0.4286 0.0000  plane waves:    1949
 k-point 13 :   0.0000 0.1429 0.1429  plane waves:    1938
 k-point 14 :   0.2000 0.1429 0.1429  plane waves:    1939
 k-point 15 :   0.4000 0.1429 0.1429  plane waves:    1946
 k-point 16 :   0.0000 0.2857 0.1429  plane waves:    1957
 k-point 17 :   0.2000 0.2857 0.1429  plane waves:    1947
 k-point 18 :   0.4000 0.2857 0.1429  plane waves:    1949
 k-point 19 :   0.0000 0.4286 0.1429  plane waves:    1954
 k-point 20 :   0.2000 0.4286 0.1429  plane waves:    1956
 k-point 21 :   0.4000 0.4286 0.1429  plane waves:    1959
 k-point 22 :   0.0000 0.2857 0.2857  plane waves:    1962
 k-point 23 :   0.2000 0.2857 0.2857  plane waves:    1968
 k-point 24 :   0.4000 0.2857 0.2857  plane waves:    1958
 k-point 25 :   0.0000 0.4286 0.2857  plane waves:    1962
 k-point 26 :   0.2000 0.4286 0.2857  plane waves:    1959
 k-point 27 :   0.4000 0.4286 0.2857  plane waves:    1949
 k-point 28 :   0.0000 0.4286 0.4286  plane waves:    1952
 k-point 29 :   0.2000 0.4286 0.4286  plane waves:    1956
 k-point 30 :   0.4000 0.4286 0.4286  plane waves:    1962

 maximum and minimum number of plane-waves per node :      1968     1923

 maximum number of plane-waves:      1968
 maximum index in each direction:
   IXMAX=    9   IYMAX=    6   IZMAX=    6
   IXMIN=  -10   IYMIN=   -7   IZMIN=   -7

 WARNING: aliasing errors must be expected set NGX to  40 to avoid them
 WARNING: aliasing errors must be expected set NGY to  28 to avoid them
 WARNING: aliasing errors must be expected set NGZ to  28 to avoid them
 aliasing errors are usually negligible using standard VASP settings
 and one can safely disregard these warnings

 serial   3D FFT for wavefunctions
 parallel 3D FFT for charge:
    minimum data exchange during FFTs selected (reduces bandwidth)


 total amount of memory used by VASP on root node    71138. kBytes
========================================================================

   base      :      30000. kBytes
   nonl-proj :      17129. kBytes
   fftplans  :        888. kBytes
   grid      :       1728. kBytes
   one-center:         62. kBytes
   wavefun   :      21331. kBytes

     INWAV:  cpu time    0.0000: real time    0.0000
 Broyden mixing: mesh for mixing (old mesh)
   NGX = 19   NGY = 13   NGZ = 13
  (NGX  = 30   NGY  = 24   NGZ  = 24)
  gives a total of   3211 points

 initial charge density was supplied:
 charge density of overlapping atoms calculated
 number of electron      36.0000000 magnetization
 keeping initial charge density in first step


--------------------------------------------------------------------------------------------------------


 Maximum index for augmentation-charges          866 (set IRDMAX)


--------------------------------------------------------------------------------------------------------


 First call to EWALD:  gamma=   0.417
 Maximum number of real-space cells 2x 3x 3
 Maximum number of reciprocal cells 3x 2x 2

 FEWALD executed in parallel
    FEWALD:  cpu time    0.0011: real time    0.0011


----------------------------------------- Iteration    1(   1)  ---------------------------------------


    POTLOK:  cpu time    0.0072: real time    0.0072
    SETDIJ:  cpu time    0.0019: real time    0.0019
     EDDAV:  cpu time    0.4375: real time    0.4396
       DOS:  cpu time    0.0004: real time    0.0004
    --------------------------------------------
      LOOP:  cpu time    0.4523: real time    0.4546

 eigenvalue-minimisations  :  1320
 total energy-change (2. order) : 0.2308965E+03  (-0.1731309E+04)
 number of electron      36.0000000 magnetization
 augmentation part       36.0000000 magnetization

 Free energy of the ion-electron system (eV)
  ---------------------------------------------------
  alpha Z        PSCENC =       147.08766935
  Ewald energy   TEWEN  =     -2528.63530262
  -Hartree energ DENC   =     -1368.65072340
  -exchange      EXHF   =         0.00000000
  -V(xc)+E(xc)   XCENC  =       140.96226215
  PAW double counting   =      3343.44361914    -3692.01684003
  entropy T*S    EENTRO =        -0.00049537
  eigenvalues    EBANDS =       140.56195738
  atomic energy  EATOM  =      4048.14435094
  Solvation  Ediel_sol  =         0.00000000
  ---------------------------------------------------
  free energy    TOTEN  =       230.89649754 eV

  energy without entropy =      230.89699291  energy(sigma->0) =      230.89674522


--------------------------------------------------------------------------------------------------------




----------------------------------------- Iteration    1(   2)  ---------------------------------------


     EDDAV:  cpu time    0.4672: real time    0.4720
       DOS:  cpu time    0.0001: real time    0.0001
    --------------------------------------------
      LOOP:  cpu time    0.4679: real time    0.4741

 eigenvalue-minimisations  :  1422
 total energy-change (2. order) :-0.2256045E+03  (-0.2196434E+03)
 number of electron      36.0000000 magnetization
 augmentation part       36.0000000 magnetization

 Free energy of the ion-electron system (eV)
  ---------------------------------------------------
  alpha Z        PSCENC =       147.08766935
  Ewald energy   TEWEN  =     -2528.63530262
  -Hartree energ DENC   =     -1368.65072340
  -exchange      EXHF   =         0.00000000
  -V(xc)+E(xc)   XCENC  =       140.96226215
  PAW double counting   =      3343.44361914    -3692.01684003
  entropy T*S    EENTRO =        -0.00000000
  eigenvalues    EBANDS =       -85.04307329
  atomic energy  EATOM  =      4048.14435094
  Solvation  Ediel_sol  =         0.00000000
  ---------------------------------------------------
  free energy    TOTEN  =         5.29196224 eV

  energy without entropy =        5.29196224  energy(sigma->0) =        5.29196224


--------------------------------------------------------------------------------------------------------




----------------------------------------- Iteration    1(   3)  ---------------------------------------


     EDDAV:  cpu time    0.4777: real time    0.4821
       DOS:  cpu time    0.0001: real time    0.0001
    --------------------------------------------
      LOOP:  cpu time    0.4785: real time    0.4842

 eigenvalue-minimisations  :  1538
 total energy-change (2. order) :-0.2081228E+02  (-0.2072878E+02)
 number of electron      36.0000000 magnetization
 augmentation part       36.0000000 magnetization

 Free energy of the ion-electron system (eV)
  ---------------------------------------------------
  alpha Z        PSCENC =       147.08766935
  Ewald energy   TEWEN  =     -2528.63530262
  -Hartree energ DENC   =     -1368.65072340
  -exchange      EXHF   =         0.00000000
  -V(xc)+E(xc)   XCENC  =       140.96226215
  PAW double counting   =      3343.44361914    -3692.01684003
  entropy T*S    EENTRO =        -0.00000000
  eigenvalues    EBANDS =      -105.85535020
  atomic energy  EATOM  =      4048.14435094
  Solvation  Ediel_sol  =         0.00000000
  ---------------------------------------------------
  free energy    TOTEN  =       -15.52031467 eV

  energy without entropy =      -15.52031467  energy(sigma->0) =      -15.52031467


--------------------------------------------------------------------------------------------------------




----------------------------------------- Iteration    1(   4)  ---------------------------------------


     EDDAV:  cpu time    0.5042: real time    0.5089
       DOS:  cpu time    0.0001: real time    0.0001
    --------------------------------------------
      LOOP:  cpu time    0.5051: real time    0.5111

 eigenvalue-minimisations  :  1578
 total energy-change (2. order) :-0.4729870E+00  (-0.4724228E+00)
 number of electron      36.0000000 magnetization
 augmentation part       36.0000000 magnetization

 Free energy of the ion-electron system (eV)
  ---------------------------------------------------
  alpha Z        PSCENC =       147.08766935
  Ewald energy   TEWEN  =     -2528.63530262
  -Hartree energ DENC   =     -1368.65072340
  -exchange      EXHF   =         0.00000000
  -V(xc)+E(xc)   XCENC  =       140.96226215
  PAW double counting   =      3343.44361914    -3692.01684003
  entropy T*S    EENTRO =        -0.00000000
  eigenvalues    EBANDS =      -106.32833716
  atomic energy  EATOM  =      4048.14435094
  Solvation  Ediel_sol  =         0.00000000
  ---------------------------------------------------
  free energy    TOTEN  =       -15.99330164 eV

  energy without entropy =      -15.99330164  energy(sigma->0) =      -15.99330164


--------------------------------------------------------------------------------------------------------




----------------------------------------- Iteration    1(   5)  ---------------------------------------


     EDDAV:  cpu time    0.4840: real time    0.4865
       DOS:  cpu time    0.0001: real time    0.0001
    CHARGE:  cpu time    0.0282: real time    0.0282
    MIXING:  cpu time    0.0025: real time    0.0027
    --------------------------------------------
      LOOP:  cpu time    0.5154: real time    0.5195

 eigenvalue-minimisations  :  1558
 total energy-change (2. order) :-0.8815149E-02  (-0.8814197E-02)
 number of electron      36.0004478 magnetization
 augmentation part       14.1827250 magnetization

 Broyden mixing:
  rms(total) = 0.99514E+00    rms(broyden)= 0.99507E+00
  rms(prec ) = 0.12936E+01
  weight for this iteration     100.00

 Free energy of the ion-electron system (eV)
  ---------------------------------------------------
  alpha Z        PSCENC =       147.08766935
  Ewald energy   TEWEN  =     -2528.63530262
  -Hartree energ DENC   =     -1368.65072340
  -exchange      EXHF   =         0.00000000
  -V(xc)+E(xc)   XCENC  =       140.96226215
  PAW double counting   =      3343.44361914    -3692.01684003
  entropy T*S    EENTRO =        -0.00000000
  eigenvalues    EBANDS =      -106.33715231
  atomic energy  EATOM  =      4048.14435094
  Solvation  Ediel_sol  =         0.00000000
  ---------------------------------------------------
  free energy    TOTEN  =       -16.00211679 eV

  energy without entropy =      -16.00211679  energy(sigma->0) =      -16.00211679


--------------------------------------------------------------------------------------------------------




----------------------------------------- Iteration    1(   6)  ---------------------------------------


    POTLOK:  cpu time    0.0071: real time    0.0071
    SETDIJ:  cpu time    0.0016: real time    0.0016
     EDDAV:  cpu time    0.5594: real time    0.5631
       DOS:  cpu time    0.0001: real time    0.0001
    CHARGE:  cpu time    0.0279: real time    0.0280
    MIXING:  cpu time    0.0005: real time    0.0005
    --------------------------------------------
      LOOP:  cpu time    0.5972: real time    0.6024

 eigenvalue-minimisations  :  1800
 total energy-change (2. order) : 0.8262270E+00  (-0.2201869E+00)
 number of electron      36.0004533 magnetization
 augmentation part       14.4291022 magnetization

 Broyden mixing:
  rms(total) = 0.76527E+00    rms(broyden)= 0.76526E+00
  rms(prec ) = 0.82794E+00
  weight for this iteration     100.00

 eigenvalues of (default mixing * dielectric matrix)
  average eigenvalue GAMMA=   2.0609
  2.0609

 Free energy of the ion-electron system (eV)
  ---------------------------------------------------
  alpha Z        PSCENC =       147.08766935
  Ewald energy   TEWEN  =     -2528.63530262
  -Hartree energ DENC   =     -1352.49652815
  -exchange      EXHF   =         0.00000000
  -V(xc)+E(xc)   XCENC  =       140.72222373
  PAW double counting   =      3619.01304372    -3961.75420167
  entropy T*S    EENTRO =        -0.00000000
  eigenvalues    EBANDS =      -127.25714513
  atomic energy  EATOM  =      4048.14435094
  Solvation  Ediel_sol  =         0.00000000
  ---------------------------------------------------
  free energy    TOTEN  =       -15.17588983 eV

  energy without entropy =      -15.17588983  energy(sigma->0) =      -15.17588983


--------------------------------------------------------------------------------------------------------




----------------------------------------- Iteration    1(   7)  ---------------------------------------


    POTLOK:  cpu time    0.0066: real time    0.0066
    SETDIJ:  cpu time    0.0016: real time    0.0016
     EDDAV:  cpu time    0.4523: real time    0.4548
       DOS:  cpu time    0.0001: real time    0.0001
    CHARGE:  cpu time    0.0286: real time    0.0287
    MIXING:  cpu time    0.0006: real time    0.0006
    --------------------------------------------
      LOOP:  cpu time    0.4904: real time    0.4944

 eigenvalue-minimisations  :  1374
 total energy-change (2. order) :-0.2868295E-01  (-0.1828014E+00)
 number of electron      36.0004513 magnetization
 augmentation part       14.4293734 magnetization

 Broyden mixing:
  rms(total) = 0.33954E+00    rms(broyden)= 0.33954E+00
  rms(prec ) = 0.36802E+00
  weight for this iteration     100.00

 eigenvalues of (default mixing * dielectric matrix)
  average eigenvalue GAMMA=   1.6974
  0.9112  2.4836

 Free energy of the ion-electron system (eV)
  ---------------------------------------------------
  alpha Z        PSCENC =       147.08766935
  Ewald energy   TEWEN  =     -2528.63530262
  -Hartree energ DENC   =     -1354.51658460
  -exchange      EXHF   =         0.00000000
  -V(xc)+E(xc)   XCENC  =       141.12867060
  PAW double counting   =      3990.26353014    -4338.11093814
  entropy T*S    EENTRO =        -0.00000000
  eigenvalues    EBANDS =      -120.56596844
  atomic energy  EATOM  =      4048.14435094
  Solvation  Ediel_sol  =         0.00000000
  ---------------------------------------------------
  free energy    TOTEN  =       -15.20457277 eV

  energy without entropy =      -15.20457277  energy(sigma->0) =      -15.20457277


--------------------------------------------------------------------------------------------------------




----------------------------------------- Iteration    1(   8)  ---------------------------------------


    POTLOK:  cpu time    0.0067: real time    0.0068
    SETDIJ:  cpu time    0.0014: real time    0.0014
     EDDAV:  cpu time    0.5744: real time    0.5771
       DOS:  cpu time    0.0001: real time    0.0001
    CHARGE:  cpu time    0.0292: real time    0.0296
    MIXING:  cpu time    0.0007: real time    0.0007
    --------------------------------------------
      LOOP:  cpu time    0.6132: real time    0.6175

 eigenvalue-minimisations  :  1808
 total energy-change (2. order) : 0.1764178E-01  (-0.8004901E-02)
 number of electron      36.0004510 magnetization
 augmentation part       14.4047639 magnetization

 Broyden mixing:
  rms(total) = 0.11488E+00    rms(broyden)= 0.11488E+00
  rms(prec ) = 0.12558E+00
  weight for this iteration     100.00

 eigenvalues of (default mixing * dielectric matrix)
  average eigenvalue GAMMA=   1.5495
  2.4130  1.1177  1.1177

 Free energy of the ion-electron system (eV)
  ---------------------------------------------------
  alpha Z        PSCENC =       147.08766935
  Ewald energy   TEWEN  =     -2528.63530262
  -Hartree energ DENC   =     -1353.62431966
  -exchange      EXHF   =         0.00000000
  -V(xc)+E(xc)   XCENC  =       141.05889856
  PAW double counting   =      4197.15361937    -4546.42460321
  entropy T*S    EENTRO =        -0.00000000
  eigenvalues    EBANDS =      -119.94724371
  atomic energy  EATOM  =      4048.14435094
  Solvation  Ediel_sol  =         0.00000000
  ---------------------------------------------------
  free energy    TOTEN  =       -15.18693099 eV

  energy without entropy =      -15.18693099  energy(sigma->0) =      -15.18693099


--------------------------------------------------------------------------------------------------------




----------------------------------------- Iteration    1(   9)  ---------------------------------------


    POTLOK:  cpu time    0.0068: real time    0.0068
    SETDIJ:  cpu time    0.0016: real time    0.0016
     EDDAV:  cpu time    0.5627: real time    0.5651
       DOS:  cpu time    0.0001: real time    0.0001
    CHARGE:  cpu time    0.0282: real time    0.0282
    MIXING:  cpu time    0.0007: real time    0.0007
    --------------------------------------------
      LOOP:  cpu time    0.6007: real time    0.6045

 eigenvalue-minimisations  :  1830
 total energy-change (2. order) : 0.5531352E-03  (-0.1938206E-02)
 number of electron      36.0004515 magnetization
 augmentation part       14.4142677 magnetization

 Broyden mixing:
  rms(total) = 0.25281E-01    rms(broyden)= 0.25280E-01
  rms(prec ) = 0.26148E-01
  weight for this iteration     100.00

 eigenvalues of (default mixing * dielectric matrix)
  average eigenvalue GAMMA=   1.2774
  2.3509  1.0984  1.0984  0.5617

 Free energy of the ion-electron system (eV)
  ---------------------------------------------------
  alpha Z        PSCENC =       147.08766935
  Ewald energy   TEWEN  =     -2528.63530262
  -Hartree energ DENC   =     -1351.88421042
  -exchange      EXHF   =         0.00000000
  -V(xc)+E(xc)   XCENC  =       141.00921822
  PAW double counting   =      4327.01660571    -4676.31098590
  entropy T*S    EENTRO =        -0.00000000
  eigenvalues    EBANDS =      -121.61372314
  atomic energy  EATOM  =      4048.14435094
  Solvation  Ediel_sol  =         0.00000000
  ---------------------------------------------------
  free energy    TOTEN  =       -15.18637786 eV

  energy without entropy =      -15.18637786  energy(sigma->0) =      -15.18637786


--------------------------------------------------------------------------------------------------------




----------------------------------------- Iteration    1(  10)  ---------------------------------------


    POTLOK:  cpu time    0.0067: real time    0.0067
    SETDIJ:  cpu time    0.0014: real time    0.0014
     EDDAV:  cpu time    0.4829: real time    0.4864
       DOS:  cpu time    0.0001: real time    0.0001
    CHARGE:  cpu time    0.0282: real time    0.0282
    MIXING:  cpu time    0.0008: real time    0.0008
    --------------------------------------------
      LOOP:  cpu time    0.5206: real time    0.5255

 eigenvalue-minimisations  :  1522
 total energy-change (2. order) :-0.1200731E-03  (-0.1076961E-03)
 number of electron      36.0004514 magnetization
 augmentation part       14.4132555 magnetization

 Broyden mixing:
  rms(total) = 0.16480E-01    rms(broyden)= 0.16480E-01
  rms(prec ) = 0.17571E-01
  weight for this iteration     100.00

 eigenvalues of (default mixing * dielectric matrix)
  average eigenvalue GAMMA=   1.6858
  2.6446  2.6446  1.0588  1.0588  1.0225

 Free energy of the ion-electron system (eV)
  ---------------------------------------------------
  alpha Z        PSCENC =       147.08766935
  Ewald energy   TEWEN  =     -2528.63530262
  -Hartree energ DENC   =     -1352.03957603
  -exchange      EXHF   =         0.00000000
  -V(xc)+E(xc)   XCENC  =       141.01394049
  PAW double counting   =      4314.51915605    -4663.83983279
  entropy T*S    EENTRO =        -0.00000000
  eigenvalues    EBANDS =      -121.43690333
  atomic energy  EATOM  =      4048.14435094
  Solvation  Ediel_sol  =         0.00000000
  ---------------------------------------------------
  free energy    TOTEN  =       -15.18649793 eV

  energy without entropy =      -15.18649793  energy(sigma->0) =      -15.18649793


--------------------------------------------------------------------------------------------------------




----------------------------------------- Iteration    1(  11)  ---------------------------------------


    POTLOK:  cpu time    0.0067: real time    0.0067
    SETDIJ:  cpu time    0.0015: real time    0.0015
     EDDAV:  cpu time    0.4720: real time    0.4745
       DOS:  cpu time    0.0001: real time    0.0001
    CHARGE:  cpu time    0.0280: real time    0.0280
    MIXING:  cpu time    0.0009: real time    0.0009
    --------------------------------------------
      LOOP:  cpu time    0.5099: real time    0.5137

 eigenvalue-minimisations  :  1458
 total energy-change (2. order) :-0.1113733E-03  (-0.1989418E-04)
 number of electron      36.0004514 magnetization
 augmentation part       14.4119162 magnetization

 Broyden mixing:
  rms(total) = 0.80077E-02    rms(broyden)= 0.80077E-02
  rms(prec ) = 0.82815E-02
  weight for this iteration     100.00

 eigenvalues of (default mixing * dielectric matrix)
  average eigenvalue GAMMA=   1.5175
  2.6312  2.3760  1.1860  1.0443  1.0443  0.8234

 Free energy of the ion-electron system (eV)
  ---------------------------------------------------
  alpha Z        PSCENC =       147.08766935
  Ewald energy   TEWEN  =     -2528.63530262
  -Hartree energ DENC   =     -1352.27979918
  -exchange      EXHF   =         0.00000000
  -V(xc)+E(xc)   XCENC  =       141.02359471
  PAW double counting   =      4295.01043169    -4644.36758576
  entropy T*S    EENTRO =        -0.00000000
  eigenvalues    EBANDS =      -121.16996843
  atomic energy  EATOM  =      4048.14435094
  Solvation  Ediel_sol  =         0.00000000
  ---------------------------------------------------
  free energy    TOTEN  =       -15.18660930 eV

  energy without entropy =      -15.18660930  energy(sigma->0) =      -15.18660930


--------------------------------------------------------------------------------------------------------




----------------------------------------- Iteration    1(  12)  ---------------------------------------


    POTLOK:  cpu time    0.0067: real time    0.0068
    SETDIJ:  cpu time    0.0015: real time    0.0015
     EDDAV:  cpu time    0.5119: real time    0.5143
       DOS:  cpu time    0.0001: real time    0.0001
    CHARGE:  cpu time    0.0281: real time    0.0281
    MIXING:  cpu time    0.0010: real time    0.0010
    --------------------------------------------
      LOOP:  cpu time    0.5500: real time    0.5538

 eigenvalue-minimisations  :  1638
 total energy-change (2. order) : 0.3223042E-05  (-0.3948417E-05)
 number of electron      36.0004514 magnetization
 augmentation part       14.4125634 magnetization

 Broyden mixing:
  rms(total) = 0.11554E-02    rms(broyden)= 0.11554E-02
  rms(prec ) = 0.12156E-02
  weight for this iteration     100.00

 eigenvalues of (default mixing * dielectric matrix)
  average eigenvalue GAMMA=   1.5982
  2.8580  2.2413  1.9287  1.0119  1.0119  1.0680  1.0680

 Free energy of the ion-electron system (eV)
  ---------------------------------------------------
  alpha Z        PSCENC =       147.08766935
  Ewald energy   TEWEN  =     -2528.63530262
  -Hartree energ DENC   =     -1352.18724171
  -exchange      EXHF   =         0.00000000
  -V(xc)+E(xc)   XCENC  =       141.02103224
  PAW double counting   =      4302.46080671    -4651.82079226
  entropy T*S    EENTRO =        -0.00000000
  eigenvalues    EBANDS =      -121.25712872
  atomic energy  EATOM  =      4048.14435094
  Solvation  Ediel_sol  =         0.00000000
  ---------------------------------------------------
  free energy    TOTEN  =       -15.18660608 eV

  energy without entropy =      -15.18660608  energy(sigma->0) =      -15.18660608


--------------------------------------------------------------------------------------------------------




----------------------------------------- Iteration    1(  13)  ---------------------------------------


    POTLOK:  cpu time    0.0068: real time    0.0068
    SETDIJ:  cpu time    0.0021: real time    0.0021
     EDDAV:  cpu time    0.4245: real time    0.4273
       DOS:  cpu time    0.0002: real time    0.0002
    CHARGE:  cpu time    0.0286: real time    0.0287
    MIXING:  cpu time    0.0011: real time    0.0011
    --------------------------------------------
      LOOP:  cpu time    0.4640: real time    0.4681

 eigenvalue-minimisations  :  1230
 total energy-change (2. order) :-0.1236822E-05  (-0.2868307E-06)
 number of electron      36.0004514 magnetization
 augmentation part       14.4124576 magnetization

 Broyden mixing:
  rms(total) = 0.34074E-03    rms(broyden)= 0.34073E-03
  rms(prec ) = 0.37908E-03
  weight for this iteration     100.00

 eigenvalues of (default mixing * dielectric matrix)
  average eigenvalue GAMMA=   1.6583
  3.0779  2.7970  2.3325  1.1224  1.0353  1.0353  0.9330  0.9330

 Free energy of the ion-electron system (eV)
  ---------------------------------------------------
  alpha Z        PSCENC =       147.08766935
  Ewald energy   TEWEN  =     -2528.63530262
  -Hartree energ DENC   =     -1352.20075590
  -exchange      EXHF   =         0.00000000
  -V(xc)+E(xc)   XCENC  =       141.02145315
  PAW double counting   =      4301.84422642    -4651.21292959
  entropy T*S    EENTRO =        -0.00000000
  eigenvalues    EBANDS =      -121.23531907
  atomic energy  EATOM  =      4048.14435094
  Solvation  Ediel_sol  =         0.00000000
  ---------------------------------------------------
  free energy    TOTEN  =       -15.18660732 eV

  energy without entropy =      -15.18660732  energy(sigma->0) =      -15.18660732


--------------------------------------------------------------------------------------------------------




----------------------------------------- Iteration    1(  14)  ---------------------------------------


    POTLOK:  cpu time    0.0068: real time    0.0069
    SETDIJ:  cpu time    0.0014: real time    0.0014
     EDDAV:  cpu time    0.3263: real time    0.3283
       DOS:  cpu time    0.0002: real time    0.0002
    --------------------------------------------
      LOOP:  cpu time    0.3556: real time    0.3589

 eigenvalue-minimisations  :   858
 total energy-change (2. order) :-0.6345181E-07  (-0.6341601E-07)
 number of electron      36.0004514 magnetization
 augmentation part       14.4124576 magnetization

 Free energy of the ion-electron system (eV)
  ---------------------------------------------------
  alpha Z        PSCENC =       147.08766935
  Ewald energy   TEWEN  =     -2528.63530262
  -Hartree energ DENC   =     -1352.19935468
  -exchange      EXHF   =         0.00000000
  -V(xc)+E(xc)   XCENC  =       141.02135434
  PAW double counting   =      4301.46557562    -4650.83069346
  entropy T*S    EENTRO =        -0.00000000
  eigenvalues    EBANDS =      -121.24020688
  atomic energy  EATOM  =      4048.14435094
  Solvation  Ediel_sol  =         0.00000000
  ---------------------------------------------------
  free energy    TOTEN  =       -15.18660738 eV

  energy without entropy =      -15.18660738  energy(sigma->0) =      -15.18660738


--------------------------------------------------------------------------------------------------------




 the core state eigenenergies are
   1-  1s  -9518.2144  2s  -1151.7468  2p   -997.3998  3s   -122.7642  3p    -76.9267

   2-  1s  -9518.2144  2s  -1151.7468  2p   -997.3998  3s   -122.7642  3p    -76.9267

   3-  1s  -2396.4741  2s   -202.5856  2p   -147.3536
   4-  1s  -2396.4741  2s   -202.5856  2p   -147.3536

 E-fermi :   2.3614     XC(G=0):  -9.9692     alpha+bet : -8.2695


 k-point     1 :       0.0000    0.0000    0.0000
  band No.  band energies     occupation
      1     -11.0798      2.00000
      2      -9.7531      2.00000
      3      -4.2877      2.00000
      4      -4.2208      2.00000
      5      -4.2181      2.00000
      6      -4.2181      2.00000
      7      -3.8535      2.00000
      8      -3.8535      2.00000
      9      -3.6934      2.00000
     10      -3.6876      2.00000
     11      -3.6069      2.00000
     12      -3.4679      2.00000
     13      -2.4626      2.00000
     14      -0.0739      2.00000
     15      -0.0739      2.00000
     16       2.2547      2.00000
     17       2.2657      2.00000
     18       2.2657      2.00000
     19       4.3532      0.00000
     20       5.4504      0.00000
     21       6.2448      0.00000
     22       8.5507      0.00000

 k-point     2 :       0.2000    0.0000    0.0000
  band No.  band energies     occupation
      1     -10.9731      2.00000
      2      -9.9056      2.00000
      3      -4.2945      2.00000
      4      -4.2377      2.00000
      5      -4.1916      2.00000
      6      -4.1916      2.00000
      7      -3.8995      2.00000
      8      -3.8995      2.00000
      9      -3.7056      2.00000
     10      -3.6799      2.00000
     11      -3.6211      2.00000
     12      -3.6146      2.00000
     13      -1.9657      2.00000
     14       0.1138      2.00000
     15       0.1138      2.00000
     16       1.4602      2.00000
     17       1.9744      2.00000
     18       1.9744      2.00000
     19       5.2314      0.00000
     20       5.6514      0.00000
     21       6.4278      0.00000
     22       8.0464      0.00000

 k-point     3 :       0.4000    0.0000    0.0000
  band No.  band energies     occupation
      1     -10.6776      2.00000
      2     -10.2733      2.00000
      3      -4.2985      2.00000
      4      -4.2744      2.00000
      5      -4.1158      2.00000
      6      -4.1158      2.00000
      7      -4.0059      2.00000
      8      -4.0059      2.00000
      9      -3.7314      2.00000
     10      -3.7298      2.00000
     11      -3.6597      2.00000
     12      -3.6348      2.00000
     13      -0.9624      2.00000
     14       0.2216      2.00000
     15       0.6228      2.00000
     16       0.6228      2.00000
     17       1.3159      2.00000
     18       1.3159      2.00000
     19       6.2181      0.00000
     20       6.4544      0.00000
     21       6.7986      0.00000
     22       7.1043      0.00000

 k-point     4 :       0.0000    0.1429    0.0000
  band No.  band energies     occupation
      1     -10.9710      2.00000
      2      -9.7536      2.00000
      3      -4.2275      2.00000
      4      -4.2247      2.00000
      5      -4.2009      2.00000
      6      -4.1953      2.00000
      7      -3.8760      2.00000
      8      -3.8478      2.00000
      9      -3.6948      2.00000
     10      -3.6899      2.00000
     11      -3.6240      2.00000
     12      -3.3927      2.00000
     13      -2.4847      2.00000
     14      -0.5765      2.00000
     15       0.0768      2.00000
     16       1.2945      2.00000
     17       1.9384      2.00000
     18       2.2015      2.00000
     19       5.1702      0.00000
     20       5.8546      0.00000
     21       6.9628      0.00000
     22       8.3354      0.00000

 k-point     5 :       0.2000    0.1429    0.0000
  band No.  band energies     occupation
      1     -10.8706      2.00000
      2      -9.8892      2.00000
      3      -4.2315      2.00000
      4      -4.2222      2.00000
      5      -4.1833      2.00000
      6      -4.1788      2.00000
      7      -3.9208      2.00000
      8      -3.8965      2.00000
      9      -3.7002      2.00000
     10      -3.6855      2.00000
     11      -3.6253      2.00000
     12      -3.5628      2.00000
     13      -2.0919      2.00000
     14      -0.2808      2.00000
     15       0.2497      2.00000
     16       0.5713      2.00000
     17       1.9466      2.00000
     18       2.0286      2.00000
     19       5.4901      0.00000
     20       6.0585      0.00000
     21       7.1027      0.00000
     22       8.4496      0.00000

 k-point     6 :       0.4000    0.1429    0.0000
  band No.  band energies     occupation
      1     -10.5943      2.00000
      2     -10.2216      2.00000
      3      -4.2415      2.00000
      4      -4.2374      2.00000
      5      -4.1146      2.00000
      6      -4.1142      2.00000
      7      -4.0185      2.00000
      8      -4.0053      2.00000
      9      -3.7199      2.00000
     10      -3.7027      2.00000
     11      -3.6625      2.00000
     12      -3.6382      2.00000
     13      -1.3401      2.00000
     14      -0.4361      2.00000
     15       0.4863      2.00000
     16       0.7193      2.00000
     17       1.3552      2.00000
     18       1.4138      2.00000
     19       6.3662      0.00000
     20       6.5403      0.00000
     21       7.3848      0.00000
     22       7.7925      0.00000

 k-point     7 :       0.0000    0.2857    0.0000
  band No.  band energies     occupation
      1     -10.6764      2.00000
      2      -9.7962      2.00000
      3      -4.2116      2.00000
      4      -4.1539      2.00000
      5      -4.1391      2.00000
      6      -4.1367      2.00000
      7      -3.9359      2.00000
      8      -3.7807      2.00000
      9      -3.7083      2.00000
     10      -3.6749      2.00000
     11      -3.6606      2.00000
     12      -3.3326      2.00000
     13      -2.5513      2.00000
     14      -1.0890      2.00000
     15      -0.1415      2.00000
     16       0.4837      2.00000
     17       1.0966      2.00000
     18       1.9825      2.00000
     19       6.2364      0.00000
     20       6.3832      0.00000
     21       8.2938      0.00000
     22       8.5719      0.00000

 k-point     8 :       0.2000    0.2857    0.0000
  band No.  band energies     occupation
      1     -10.5970      2.00000
      2      -9.8841      2.00000
      3      -4.1815      2.00000
      4      -4.1444      2.00000
      5      -4.1386      2.00000
      6      -4.1326      2.00000
      7      -3.9743      2.00000
      8      -3.8182      2.00000
      9      -3.6948      2.00000
     10      -3.6818      2.00000
     11      -3.6503      2.00000
     12      -3.4289      2.00000
     13      -2.6066      2.00000
     14      -0.7770      2.00000
     15      -0.4998      2.00000
     16       0.6141      2.00000
     17       1.5489      2.00000
     18       1.8239      2.00000
     19       5.8056      0.00000
     20       6.5159      0.00000
     21       8.4523      0.00000
     22       9.0085      0.00000

 k-point     9 :       0.4000    0.2857    0.0000
  band No.  band energies     occupation
      1     -10.3840      2.00000
      2     -10.1112      2.00000
      3      -4.1369      2.00000
      4      -4.1311      2.00000
      5      -4.1108      2.00000
      6      -4.0808      2.00000
      7      -4.0488      2.00000
      8      -3.9224      2.00000
      9      -3.6917      2.00000
     10      -3.6661      2.00000
     11      -3.6464      2.00000
     12      -3.6413      2.00000
     13      -2.2937      2.00000
     14      -1.6425      2.00000
     15       0.5901      2.00000
     16       0.9661      2.00000
     17       1.4264      2.00000
     18       1.4989      2.00000
     19       5.8402      0.00000
     20       6.4730      0.00000
     21       8.3545      0.00000
     22       8.9448      0.00000

 k-point    10 :       0.0000    0.4286    0.0000
  band No.  band energies     occupation
      1     -10.2939      2.00000
      2      -9.9675      2.00000
      3      -4.1078      2.00000
      4      -4.0995      2.00000
      5      -4.0880      2.00000
      6      -4.0778      2.00000
      7      -4.0124      2.00000
      8      -3.8015      2.00000
      9      -3.7114      2.00000
     10      -3.6943      2.00000
     11      -3.6442      2.00000
     12      -3.5882      2.00000
     13      -2.1975      2.00000
     14      -1.3503      2.00000
     15      -0.7853      2.00000
     16       0.0615      2.00000
     17       1.0329      2.00000
     18       1.5768      2.00000
     19       6.9572      0.00000
     20       6.9872      0.00000
     21       8.8875      0.00000
     22       8.8905      0.00000

 k-point    11 :       0.2000    0.4286    0.0000
  band No.  band energies     occupation
      1     -10.2552      2.00000
      2      -9.9896      2.00000
      3      -4.1084      2.00000
      4      -4.0996      2.00000
      5      -4.0960      2.00000
      6      -4.0378      2.00000
      7      -4.0175      2.00000
      8      -3.7643      2.00000
      9      -3.6938      2.00000
     10      -3.6768      2.00000
     11      -3.6488      2.00000
     12      -3.5359      2.00000
     13      -2.7126      2.00000
     14      -1.9427      2.00000
     15      -0.0709      2.00000
     16       0.7165      2.00000
     17       1.0933      2.00000
     18       1.5364      2.00000
     19       6.2723      0.00000
     20       6.7241      0.00000
     21       8.4500      0.00000
     22       8.8838      0.00000

 k-point    12 :       0.4000    0.4286    0.0000
  band No.  band energies     occupation
      1     -10.1601      2.00000
      2     -10.0577      2.00000
      3      -4.1045      2.00000
      4      -4.1013      2.00000
      5      -4.1009      2.00000
      6      -4.0804      2.00000
      7      -3.8239      2.00000
      8      -3.7074      2.00000
      9      -3.6639      2.00000
     10      -3.6625      2.00000
     11      -3.6560      2.00000
     12      -3.4760      2.00000
     13      -3.1591      2.00000
     14      -2.7049      2.00000
     15       0.9722      2.00000
     16       1.2454      2.00000
     17       1.3626      2.00000
     18       1.4167      2.00000
     19       5.5568      0.00000
     20       5.9071      0.00000
     21       8.7235      0.00000
     22       9.1185      0.00000

 k-point    13 :       0.0000    0.1429    0.1429
  band No.  band energies     occupation
      1     -10.8653      2.00000
      2      -9.7480      2.00000
      3      -4.2504      2.00000
      4      -4.1746      2.00000
      5      -4.1675      2.00000
      6      -4.1648      2.00000
      7      -3.8978      2.00000
      8      -3.8287      2.00000
      9      -3.7122      2.00000
     10      -3.6764      2.00000
     11      -3.6487      2.00000
     12      -3.3404      2.00000
     13      -2.4894      2.00000
     14      -0.4483      2.00000
     15      -0.4044      2.00000
     16       0.9433      2.00000
     17       1.7033      2.00000
     18       1.7126      2.00000
     19       5.8082      0.00000
     20       6.6097      0.00000
     21       7.3015      0.00000
     22       7.6395      0.00000

 k-point    14 :       0.2000    0.1429    0.1429
  band No.  band energies     occupation
      1     -10.7710      2.00000
      2      -9.8691      2.00000
      3      -4.2279      2.00000
      4      -4.1737      2.00000
      5      -4.1658      2.00000
      6      -4.1513      2.00000
      7      -3.9579      2.00000
      8      -3.8609      2.00000
      9      -3.7097      2.00000
     10      -3.6767      2.00000
     11      -3.6432      2.00000
     12      -3.5213      2.00000
     13      -2.1550      2.00000
     14      -0.4091      2.00000
     15       0.0618      2.00000
     16       0.2679      2.00000
     17       1.3854      2.00000
     18       1.9906      2.00000
     19       5.9996      0.00000
     20       6.8277      0.00000
     21       7.3885      0.00000
     22       8.0777      0.00000

 k-point    15 :       0.4000    0.1429    0.1429
  band No.  band energies     occupation
      1     -10.5132      2.00000
      2     -10.1699      2.00000
      3      -4.1985      2.00000
      4      -4.1831      2.00000
      5      -4.1170      2.00000
      6      -4.1061      2.00000
      7      -4.0478      2.00000
      8      -3.9779      2.00000
      9      -3.7177      2.00000
     10      -3.6951      2.00000
     11      -3.6589      2.00000
     12      -3.6350      2.00000
     13      -1.4965      2.00000
     14      -0.6711      2.00000
     15       0.0172      2.00000
     16       0.6907      2.00000
     17       0.9109      2.00000
     18       1.7246      2.00000
     19       6.6791      0.00000
     20       7.3787      0.00000
     21       7.4203      0.00000
     22       8.1389      0.00000

 k-point    16 :       0.0000    0.2857    0.1429
  band No.  band energies     occupation
      1     -10.5809      2.00000
      2      -9.7725      2.00000
      3      -4.2573      2.00000
      4      -4.1067      2.00000
      5      -4.1050      2.00000
      6      -4.0997      2.00000
      7      -3.9405      2.00000
      8      -3.7590      2.00000
      9      -3.7237      2.00000
     10      -3.7066      2.00000
     11      -3.6611      2.00000
     12      -3.3007      2.00000
     13      -2.5163      2.00000
     14      -0.9650      2.00000
     15      -0.2431      2.00000
     16      -0.0188      2.00000
     17       1.0169      2.00000
     18       1.4096      2.00000
     19       6.6511      0.00000
     20       7.2492      0.00000
     21       7.2688      0.00000
     22       8.4899      0.00000

 k-point    17 :       0.2000    0.2857    0.1429
  band No.  band energies     occupation
      1     -10.5068      2.00000
      2      -9.8520      2.00000
      3      -4.2180      2.00000
      4      -4.1046      2.00000
      5      -4.0994      2.00000
      6      -4.0987      2.00000
      7      -3.9887      2.00000
      8      -3.7834      2.00000
      9      -3.7127      2.00000
     10      -3.6807      2.00000
     11      -3.6624      2.00000
     12      -3.4096      2.00000
     13      -2.5334      2.00000
     14      -0.7971      2.00000
     15      -0.6396      2.00000
     16       0.3025      2.00000
     17       1.1517      2.00000
     18       1.4127      2.00000
     19       6.4118      0.00000
     20       7.3895      0.00000
     21       7.9805      0.00000
     22       8.1760      0.00000

 k-point    18 :       0.4000    0.2857    0.1429
  band No.  band energies     occupation
      1     -10.3092      2.00000
      2     -10.0586      2.00000
      3      -4.1125      2.00000
      4      -4.1003      2.00000
      5      -4.0955      2.00000
      6      -4.0644      2.00000
      7      -4.0565      2.00000
      8      -3.8838      2.00000
      9      -3.7054      2.00000
     10      -3.6808      2.00000
     11      -3.6488      2.00000
     12      -3.6131      2.00000
     13      -2.2260      2.00000
     14      -1.6026      2.00000
     15      -0.0769      2.00000
     16       0.5631      2.00000
     17       1.0572      2.00000
     18       1.5798      2.00000
     19       6.5013      0.00000
     20       7.0373      0.00000
     21       8.2910      0.00000
     22       8.8459      0.00000

 k-point    19 :       0.0000    0.4286    0.1429
  band No.  band energies     occupation
      1     -10.2173      2.00000
      2      -9.9172      2.00000
      3      -4.1834      2.00000
      4      -4.0899      2.00000
      5      -4.0613      2.00000
      6      -4.0211      2.00000
      7      -3.9997      2.00000
      8      -3.8264      2.00000
      9      -3.6995      2.00000
     10      -3.6759      2.00000
     11      -3.6402      2.00000
     12      -3.5382      2.00000
     13      -2.1893      2.00000
     14      -1.3856      2.00000
     15      -0.7025      2.00000
     16       0.0884      2.00000
     17       0.5266      2.00000
     18       1.0482      2.00000
     19       7.3131      0.00000
     20       7.5105      0.00000
     21       7.6688      0.00000
     22       8.1668      0.00000

 k-point    20 :       0.2000    0.4286    0.1429
  band No.  band energies     occupation
      1     -10.1817      2.00000
      2      -9.9379      2.00000
      3      -4.1521      2.00000
      4      -4.0968      2.00000
      5      -4.0558      2.00000
      6      -4.0247      2.00000
      7      -3.9870      2.00000
      8      -3.7980      2.00000
      9      -3.6742      2.00000
     10      -3.6682      2.00000
     11      -3.6455      2.00000
     12      -3.4850      2.00000
     13      -2.6260      2.00000
     14      -1.8967      2.00000
     15      -0.2253      2.00000
     16       0.5599      2.00000
     17       0.6952      2.00000
     18       1.0078      2.00000
     19       6.5875      0.00000
     20       7.1138      0.00000
     21       8.1152      0.00000
     22       8.2490      0.00000

 k-point    21 :       0.4000    0.4286    0.1429
  band No.  band energies     occupation
      1     -10.0947      2.00000
      2     -10.0008      2.00000
      3      -4.1038      2.00000
      4      -4.0980      2.00000
      5      -4.0730      2.00000
      6      -4.0544      2.00000
      7      -3.8442      2.00000
      8      -3.7381      2.00000
      9      -3.6658      2.00000
     10      -3.6627      2.00000
     11      -3.6177      2.00000
     12      -3.4501      2.00000
     13      -3.0093      2.00000
     14      -2.6071      2.00000
     15       0.3491      2.00000
     16       0.7107      2.00000
     17       1.0930      2.00000
     18       1.1667      2.00000
     19       6.2729      0.00000
     20       6.4502      0.00000
     21       8.4327      0.00000
     22       8.5257      0.00000

 k-point    22 :       0.0000    0.2857    0.2857
  band No.  band energies     occupation
      1     -10.3294      2.00000
      2      -9.7435      2.00000
      3      -4.2947      2.00000
      4      -4.1046      2.00000
      5      -4.0256      2.00000
      6      -4.0228      2.00000
      7      -3.9161      2.00000
      8      -3.7839      2.00000
      9      -3.7298      2.00000
     10      -3.7066      2.00000
     11      -3.6418      2.00000
     12      -3.2673      2.00000
     13      -2.5006      2.00000
     14      -0.7852      2.00000
     15      -0.6464      2.00000
     16      -0.5779      2.00000
     17       0.6989      2.00000
     18       0.7065      2.00000
     19       6.3109      0.00000
     20       6.8155      0.00000
     21       7.5970      0.00000
     22       8.1756      0.00000

 k-point    23 :       0.2000    0.2857    0.2857
  band No.  band energies     occupation
      1     -10.2726      2.00000
      2      -9.7977      2.00000
      3      -4.2394      2.00000
      4      -4.1031      2.00000
      5      -4.0436      2.00000
      6      -4.0146      2.00000
      7      -3.9566      2.00000
      8      -3.7491      2.00000
      9      -3.7109      2.00000
     10      -3.7039      2.00000
     11      -3.6427      2.00000
     12      -3.3425      2.00000
     13      -2.5015      2.00000
     14      -1.1250      2.00000
     15      -1.0084      2.00000
     16       0.2237      2.00000
     17       0.3702      2.00000
     18       0.9133      2.00000
     19       6.9326      0.00000
     20       7.0828      0.00000
     21       7.1101      0.00000
     22       8.6332      0.00000

 k-point    24 :       0.4000    0.2857    0.2857
  band No.  band energies     occupation
      1     -10.1241      2.00000
      2      -9.9421      2.00000
      3      -4.0985      2.00000
      4      -4.0949      2.00000
      5      -4.0769      2.00000
      6      -4.0070      2.00000
      7      -3.9589      2.00000
      8      -3.7770      2.00000
      9      -3.6990      2.00000
     10      -3.6938      2.00000
     11      -3.6285      2.00000
     12      -3.5727      2.00000
     13      -2.2539      2.00000
     14      -1.7359      2.00000
     15      -0.8321      2.00000
     16      -0.2881      2.00000
     17       0.9542      2.00000
     18       1.1461      2.00000
     19       6.8958      0.00000
     20       7.3309      0.00000
     21       8.3848      0.00000
     22       8.9065      0.00000

 k-point    25 :       0.0000    0.4286    0.2857
  band No.  band energies     occupation
      1     -10.0258      2.00000
      2      -9.8080      2.00000
      3      -4.2625      2.00000
      4      -4.1713      2.00000
      5      -3.9618      2.00000
      6      -3.9343      2.00000
      7      -3.9328      2.00000
      8      -3.8455      2.00000
      9      -3.6599      2.00000
     10      -3.6468      2.00000
     11      -3.6279      2.00000
     12      -3.4468      2.00000
     13      -2.2905      2.00000
     14      -1.6460      2.00000
     15      -0.4772      2.00000
     16      -0.1303      2.00000
     17       0.1132      2.00000
     18       0.3151      2.00000
     19       6.1698      0.00000
     20       6.7051      0.00000
     21       6.8130      0.00000
     22       7.3242      0.00000

 k-point    26 :       0.2000    0.4286    0.2857
  band No.  band energies     occupation
      1     -10.0001      2.00000
      2      -9.8234      2.00000
      3      -4.2072      2.00000
      4      -4.1497      2.00000
      5      -3.9727      2.00000
      6      -3.9418      2.00000
      7      -3.9313      2.00000
      8      -3.8285      2.00000
      9      -3.6502      2.00000
     10      -3.6369      2.00000
     11      -3.6179      2.00000
     12      -3.3996      2.00000
     13      -2.4765      2.00000
     14      -1.8971      2.00000
     15      -0.7346      2.00000
     16      -0.0645      2.00000
     17       0.3520      2.00000
     18       0.4511      2.00000
     19       6.3593      0.00000
     20       6.3793      0.00000
     21       7.4938      0.00000
     22       8.1392      0.00000

 k-point    27 :       0.4000    0.4286    0.2857
  band No.  band energies     occupation
      1      -9.9372      2.00000
      2      -9.8694      2.00000
      3      -4.1054      2.00000
      4      -4.1008      2.00000
      5      -4.0207      2.00000
      6      -3.9895      2.00000
      7      -3.8325      2.00000
      8      -3.7607      2.00000
      9      -3.6781      2.00000
     10      -3.6673      2.00000
     11      -3.5277      2.00000
     12      -3.3935      2.00000
     13      -2.6738      2.00000
     14      -2.3838      2.00000
     15      -0.6651      2.00000
     16      -0.3592      2.00000
     17       0.5877      2.00000
     18       0.6489      2.00000
     19       6.7947      0.00000
     20       7.2370      0.00000
     21       8.0949      0.00000
     22       8.5702      0.00000

 k-point    28 :       0.0000    0.4286    0.4286
  band No.  band energies     occupation
      1      -9.8280      2.00000
      2      -9.7468      2.00000
      3      -4.2883      2.00000
      4      -4.2514      2.00000
      5      -3.8806      2.00000
      6      -3.8776      2.00000
      7      -3.8689      2.00000
      8      -3.8511      2.00000
      9      -3.6195      2.00000
     10      -3.6141      2.00000
     11      -3.5598      2.00000
     12      -3.4224      2.00000
     13      -2.4523      2.00000
     14      -2.1676      2.00000
     15      -0.2109      2.00000
     16      -0.1921      2.00000
     17       0.0049      2.00000
     18       0.0111      2.00000
     19       5.5379      0.00000
     20       5.7540      0.00000
     21       6.3129      0.00000
     22       6.5082      0.00000

 k-point    29 :       0.2000    0.4286    0.4286
  band No.  band energies     occupation
      1      -9.8172      2.00000
      2      -9.7515      2.00000
      3      -4.2246      2.00000
      4      -4.2014      2.00000
      5      -3.9126      2.00000
      6      -3.8889      2.00000
      7      -3.8637      2.00000
      8      -3.8400      2.00000
      9      -3.6349      2.00000
     10      -3.6297      2.00000
     11      -3.4975      2.00000
     12      -3.3605      2.00000
     13      -2.4818      2.00000
     14      -2.2269      2.00000
     15      -0.7262      2.00000
     16      -0.2608      2.00000
     17      -0.0840      2.00000
     18       0.1002      2.00000
     19       5.9747      0.00000
     20       6.1466      0.00000
     21       6.8414      0.00000
     22       7.2580      0.00000

 k-point    30 :       0.4000    0.4286    0.4286
  band No.  band energies     occupation
      1      -9.7920      2.00000
      2      -9.7669      2.00000
      3      -4.1107      2.00000
      4      -4.1067      2.00000
      5      -3.9558      2.00000
      6      -3.9370      2.00000
      7      -3.8012      2.00000
      8      -3.7737      2.00000
      9      -3.6959      2.00000
     10      -3.6845      2.00000
     11      -3.3748      2.00000
     12      -3.2960      2.00000
     13      -2.5131      2.00000
     14      -2.3897      2.00000
     15      -0.9658      2.00000
     16      -0.7383      2.00000
     17      -0.1416      2.00000
     18       0.0008      2.00000
     19       7.0449      0.00000
     20       7.5091      0.00000
     21       7.9941      0.00000
     22       8.4027      0.00000


--------------------------------------------------------------------------------------------------------


 soft charge-density along one line, spin component           1
         0         1         2         3         4         5         6         7         8         9
 total charge-density along one line

 pseudopotential strength for first ion, spin component:           1
 -9.730   0.000   0.000   0.000  -0.000 -10.100   0.000   0.000
  0.000  -9.730   0.000   0.000  -0.000   0.000 -10.100   0.000
  0.000   0.000  -9.732   0.000   0.001   0.000   0.000 -10.103
  0.000   0.000   0.000  -9.730   0.000   0.000   0.000   0.000
 -0.000  -0.000   0.001   0.000  -9.733  -0.000  -0.000   0.001
-10.100   0.000   0.000   0.000  -0.000 -10.395   0.000   0.000
  0.000 -10.100   0.000   0.000  -0.000   0.000 -10.395   0.000
  0.000   0.000 -10.103   0.000   0.001   0.000   0.000 -10.398
  0.000   0.000   0.000 -10.100   0.000   0.000   0.000   0.000
 -0.000  -0.000   0.001   0.000 -10.104  -0.000  -0.000   0.001
  0.000   0.000   0.000   0.000  -0.000   0.000   0.000   0.000
  0.000   0.000   0.000   0.000  -0.000   0.000   0.000   0.000
 -0.003   0.000  -0.000   0.000  -0.000  -0.002   0.000  -0.000
[...]

 electrical conductivity sigma (Mega S m-1) (frequency dependency in vasprun.xml)
  --------------------------------------------------------------------------------------
       0.000       0.000      -0.000
      -0.000       0.000       0.000
       0.000       0.000       0.000

 plasma frequency squared (from intraband transitions)
  --------------------------------------------------------------------------------------


 plasma frequency squared (from interband transitions, int dw w eps(2)(w)
  --------------------------------------------------------------------------------------
     166.738      -0.000       0.000
      -0.000     167.608       0.000
      -0.000       0.000     167.608
  --------------------------------------------------------------------------------------
 plasma frequency squared  (valence only):     645.679

  frequency dependent IMAGINARY DIELECTRIC FUNCTION (independent particle, no local field effects)
     E(ev)      X         Y         Z        XY        YZ        ZX
  --------------------------------------------------------------------------------------
    0.000000    0.000000    0.000000    0.000000    0.000000    0.000000    0.000000
    0.242622    0.009718    0.010266    0.010266   -0.000000    0.000000   -0.000000
    0.485244    0.020047    0.021197    0.021197   -0.000000    0.000000   -0.000000
    0.727866    0.031788    0.033668    0.033668   -0.000000    0.000000   -0.000000
    0.970489    0.046295    0.049152    0.049152   -0.000000    0.000000   -0.000000
    1.213111    0.066471    0.070808    0.070808   -0.000000    0.000000   -0.000000
    1.455733    0.100555    0.107611    0.107611   -0.000000    0.000000   -0.000000
    1.698355    0.183898    0.198502    0.198502   -0.000000    0.000000   -0.000000
    1.940977    0.644932    0.718561    0.718561   -0.000000    0.000000   -0.000000
    2.183599    1.233587    1.141479    1.141479   -0.000000    0.000000   -0.000000
    2.426221    0.329965    0.370199    0.370199   -0.000000    0.000000   -0.000000
    2.668843    0.307709    0.472016    0.472016   -0.000000    0.000000   -0.000000
    2.911466    0.500168    1.901399    1.901399    0.000000    0.000000   -0.000000
    3.154088    1.898864    1.513790    1.513790    0.000000    0.000000   -0.000000
    3.396710    3.365421    2.505857    2.505857    0.000000    0.000000   -0.000000
    3.639332    1.723674    2.519258    2.519258    0.000000    0.000000   -0.000000
    3.881954    2.538769    3.175430    3.175430   -0.000000    0.000000   -0.000000
    4.124576    6.543351    6.496979    6.496979   -0.000000    0.000000   -0.000000
    4.367198    5.333825    5.167538    5.167538   -0.000000    0.000000   -0.000000
    4.609820    2.283465    5.071216    5.071216   -0.000000    0.000000   -0.000000
    4.852443    7.124307    5.535994    5.535994   -0.000000    0.000000   -0.000000
    5.095065   10.273786    6.150936    6.150936    0.000000    0.000000   -0.000000
    5.337687    7.768202    7.654469    7.654469   -0.000000    0.000000   -0.000000
    5.580309    9.674591   12.525352   12.525352   -0.000000    0.000000   -0.000000
    5.822931   13.601049   16.081666   16.081666    0.000000    0.000000    0.000000
    6.065553   16.254688   13.808048   13.808048   -0.000000    0.000000    0.000000
    6.308175    8.758342    9.414587    9.414587   -0.000000    0.000000    0.000000
    6.550798    7.835014    7.371079    7.371079   -0.000000    0.000000    0.000000
    6.793420    8.397936    5.264161    5.264161   -0.000000    0.000000    0.000000
    7.036042    6.298089    6.416747    6.416747   -0.000000    0.000000    0.000000
    7.278664    7.050795    9.193962    9.193962   -0.000000    0.000000    0.000000
    7.521286    5.911514    7.983038    7.983038   -0.000000    0.000000    0.000000
    7.763908    6.237297    5.885058    5.885058    0.000000    0.000000    0.000000
    8.006530    3.293719    3.583664    3.583664    0.000000    0.000000    0.000000
    8.249152    3.272179    3.422131    3.422131   -0.000000    0.000000    0.000000
    8.491775    2.389283    2.248890    2.248890   -0.000000    0.000000    0.000000
    8.734397    2.192826    1.801048    1.801048   -0.000000    0.000000   -0.000000
    8.977019    2.180705    1.422461    1.422461   -0.000000    0.000000    0.000000
    9.219641    1.178604    1.188980    1.188980    0.000000    0.000000    0.000000
    9.462263    1.136858    1.250875    1.250875   -0.000000    0.000000    0.000000
    9.704885    1.258735    1.250956    1.250956   -0.000000    0.000000    0.000000
    9.947507    1.120201    1.018694    1.018694   -0.000000    0.000000    0.000000
   10.190129    0.965752    0.886136    0.886136   -0.000000    0.000000   -0.000000
   10.432752    1.101254    1.168039    1.168039   -0.000000    0.000000    0.000000
   10.675374    1.153200    1.131132    1.131132   -0.000000    0.000000   -0.000000
   10.917996    0.738573    0.760976    0.760976   -0.000000    0.000000    0.000000
   11.160618    0.778466    0.770435    0.770435   -0.000000    0.000000    0.000000
   11.403240    0.596862    0.644469    0.644469   -0.000000    0.000000   -0.000000
   11.645862    0.337493    0.356549    0.356549   -0.000000    0.000000    0.000000
   11.888484    0.435730    0.425509    0.425509    0.000000    0.000000    0.000000
   12.131107    0.528558    0.483931    0.483931   -0.000000    0.000000    0.000000
   12.373729    0.427029    0.425010    0.425010    0.000000    0.000000    0.000000
   12.616351    0.383880    0.344808    0.344808    0.000000    0.000000    0.000000
   12.858973    0.172345    0.167719    0.167719   -0.000000    0.000000    0.000000
   13.101595    0.117913    0.111053    0.111053   -0.000000    0.000000    0.000000
   13.344217    0.057471    0.056917    0.056917   -0.000000    0.000000    0.000000
   13.586839    0.040443    0.040035    0.040035   -0.000000    0.000000    0.000000
   13.829461    0.033190    0.032946    0.032946   -0.000000    0.000000    0.000000
   14.072084    0.028657    0.028505    0.028505   -0.000000    0.000000    0.000000
   14.314706    0.025406    0.025309    0.025309   -0.000000    0.000000    0.000000
   14.557328    0.022919    0.022857    0.022857   -0.000000    0.000000    0.000000
   14.799950    0.020968    0.020946    0.020946   -0.000000    0.000000    0.000000
   15.042572    0.019497    0.019459    0.019459   -0.000000    0.000000    0.000000
   15.285194    0.018599    0.018665    0.018665   -0.000000    0.000000    0.000000
   15.527816    0.019892    0.018975    0.018975   -0.000000    0.000000    0.000000
   15.770438    0.022348    0.021792    0.021792    0.000000    0.000000    0.000000
   16.013061    0.028446    0.024313    0.024313    0.000000    0.000000    0.000000
   16.255683    0.031348    0.039224    0.039224    0.000000    0.000000    0.000000
   16.498305    0.036796    0.038252    0.038252    0.000000    0.000000    0.000000
   16.740927    0.044997    0.047989    0.047989    0.000000    0.000000   -0.000000
   16.983549    0.048658    0.041966    0.041966    0.000000    0.000000    0.000000
   17.226171    0.045296    0.038288    0.038288   -0.000000    0.000000    0.000000
   17.468793    0.028879    0.030790    0.030790   -0.000000    0.000000    0.000000
   17.711416    0.023144    0.022704    0.022704   -0.000000    0.000000    0.000000
   17.954038    0.021928    0.025059    0.025059    0.000000    0.000000   -0.000000
   18.196660    0.020000    0.019899    0.019899    0.000000    0.000000   -0.000000
   18.439282    0.030249    0.030424    0.030424    0.000000    0.000000   -0.000000
   18.681904    0.017827    0.017148    0.017148    0.000000    0.000000    0.000000
   18.924526    0.013513    0.013452    0.013452   -0.000000    0.000000    0.000000
   19.167148    0.014731    0.013799    0.013799   -0.000000    0.000000   -0.000000
   19.409770    0.011789    0.009884    0.009884   -0.000000    0.000000   -0.000000
   19.652393    0.008763    0.007980    0.007980   -0.000000    0.000000   -0.000000
   19.895015    0.006569    0.006422    0.006422   -0.000000    0.000000    0.000000
   20.137637    0.005954    0.005902    0.005902   -0.000000    0.000000    0.000000
   20.380259    0.005567    0.005545    0.005545   -0.000000    0.000000    0.000000
   20.622881    0.005259    0.005251    0.005251   -0.000000    0.000000    0.000000
   20.865503    0.004995    0.004994    0.004994   -0.000000    0.000000    0.000000
   21.108125    0.004759    0.004763    0.004763   -0.000000    0.000000    0.000000
   21.350747    0.004546    0.004551    0.004551   -0.000000    0.000000    0.000000
   21.593370    0.004349    0.004356    0.004356   -0.000000    0.000000    0.000000
   21.835992    0.004166    0.004175    0.004175   -0.000000    0.000000    0.000000
   22.078614    0.003996    0.004005    0.004005   -0.000000    0.000000    0.000000
   22.321236    0.003837    0.003847    0.003847   -0.000000    0.000000    0.000000
   22.563858    0.003687    0.003697    0.003697   -0.000000    0.000000    0.000000
   22.806480    0.003546    0.003557    0.003557   -0.000000    0.000000    0.000000
   23.049102    0.003414    0.003424    0.003424   -0.000000    0.000000    0.000000
   23.291725    0.003288    0.003298    0.003298   -0.000000    0.000000    0.000000
   23.534347    0.003169    0.003179    0.003179   -0.000000    0.000000    0.000000
   23.776969    0.003056    0.003066    0.003066   -0.000000    0.000000    0.000000
   24.019591    0.002949    0.002959    0.002959   -0.000000    0.000000    0.000000

  frequency dependent      REAL DIELECTRIC FUNCTION (independent particle, no local field effects)
     E(ev)      X         Y         Z        XY        YZ        ZX
  --------------------------------------------------------------------------------------
    0.000000    5.608537    5.701051    5.701051   -0.000000    0.000000    0.000000
    0.242622    5.620229    5.713398    5.713398   -0.000000    0.000000    0.000000
    0.485244    5.656013    5.751210    5.751210   -0.000000    0.000000    0.000000
    0.727866    5.718235    5.817050    5.817050   -0.000000    0.000000    0.000000
    0.970489    5.811665    5.916111    5.916111   -0.000000    0.000000    0.000000
    1.213111    5.945671    6.058599    6.058599   -0.000000    0.000000    0.000000
    1.455733    6.140638    6.266695    6.266695   -0.000000    0.000000   -0.000000
    1.698355    6.452454    6.601271    6.601271   -0.000000    0.000000   -0.000000
    1.940977    7.062762    7.252566    7.252566   -0.000000    0.000000   -0.000000
    2.183599    5.525021    5.697382    5.697382   -0.000000    0.000000   -0.000000
    2.426221    6.265390    6.551434    6.551434   -0.000000    0.000000   -0.000000
    2.668843    6.959449    7.426397    7.426397   -0.000000    0.000000   -0.000000
    2.911466    7.834124    8.400981    8.400981   -0.000000    0.000000   -0.000000
    3.154088    9.192391    7.905192    7.905192   -0.000000    0.000000   -0.000000
    3.396710    8.606595    8.802681    8.802681   -0.000000    0.000000   -0.000000
    3.639332    7.179047    6.871921    6.871921   -0.000000    0.000000   -0.000000
    3.881954   10.095889   10.154301   10.154301   -0.000000    0.000000   -0.000000
    4.124576    9.384625    8.174348    8.174348   -0.000000    0.000000   -0.000000
    4.367198    4.223164    6.542323    6.542323   -0.000000    0.000000   -0.000000
    4.609820    8.043223    8.311082    8.311082   -0.000000    0.000000   -0.000000
    4.852443   13.207126    8.334056    8.334056   -0.000000    0.000000   -0.000000
    5.095065    5.110673    6.807814    6.807814    0.000000    0.000000   -0.000000
    5.337687    6.300733    9.000475    9.000475   -0.000000    0.000000    0.000000
    5.580309    7.048352    7.492303    7.492303   -0.000000    0.000000    0.000000
    5.822931   11.139963    7.611924    7.611924   -0.000000    0.000000    0.000000
    6.065553   -2.225362   -3.280122   -3.280122   -0.000000    0.000000   -0.000000
    6.308175   -3.489911   -2.699500   -2.699500    0.000000    0.000000    0.000000
    6.550798   -1.556879   -3.904289   -3.904289    0.000000    0.000000    0.000000
    6.793420   -2.893543   -1.520281   -1.520281    0.000000    0.000000    0.000000
    7.036042   -2.398913    0.826591    0.826591    0.000000    0.000000    0.000000
    7.278664   -2.983812   -0.327190   -0.327190    0.000000    0.000000    0.000000
    7.521286   -3.770768   -5.280104   -5.280104    0.000000    0.000000   -0.000000
    7.763908   -3.668492   -5.048845   -5.048845    0.000000    0.000000    0.000000
    8.006530   -4.155297   -4.258511   -4.258511   -0.000000    0.000000   -0.000000
    8.249152   -3.809525   -3.721481   -3.721481   -0.000000    0.000000   -0.000000
    8.491775   -3.392501   -4.364601   -4.364601    0.000000    0.000000   -0.000000
    8.734397   -2.181414   -2.843035   -2.843035    0.000000    0.000000   -0.000000
    8.977019   -3.403194   -3.121895   -3.121895    0.000000    0.000000   -0.000000
    9.219641   -2.561165   -2.160799   -2.160799    0.000000    0.000000   -0.000000
    9.462263   -2.115144   -1.996946   -1.996946    0.000000    0.000000   -0.000000
    9.704885   -1.776853   -1.923902   -1.923902    0.000000    0.000000   -0.000000
    9.947507   -1.635592   -1.587966   -1.587966    0.000000    0.000000   -0.000000
   10.190129   -1.363027   -1.383659   -1.383659    0.000000    0.000000   -0.000000
   10.432752   -1.204040   -1.093562   -1.093562    0.000000    0.000000   -0.000000
   10.675374   -1.434615   -1.456429   -1.456429    0.000000    0.000000   -0.000000
   10.917996   -1.445095   -1.390663   -1.390663    0.000000    0.000000   -0.000000
   11.160618   -1.277595   -1.261665   -1.261665    0.000000    0.000000   -0.000000
   11.403240   -1.221735   -1.240391   -1.240391    0.000000    0.000000   -0.000000
   11.645862   -0.991430   -1.011014   -1.011014    0.000000    0.000000   -0.000000
   11.888484   -0.776244   -0.768999   -0.768999    0.000000    0.000000   -0.000000
   12.131107   -0.712879   -0.743141   -0.743141    0.000000    0.000000   -0.000000
   12.373729   -0.791241   -0.798256   -0.798256    0.000000    0.000000   -0.000000
   12.616351   -0.816911   -0.787745   -0.787745    0.000000    0.000000   -0.000000
   12.858973   -0.685354   -0.689936   -0.689936    0.000000    0.000000   -0.000000
   13.101595   -0.594358   -0.589187   -0.589187    0.000000    0.000000   -0.000000
   13.344217   -0.464661   -0.464000   -0.464000    0.000000    0.000000   -0.000000
   13.586839   -0.353442   -0.354180   -0.354180    0.000000    0.000000   -0.000000
   13.829461   -0.265556   -0.267054   -0.267054    0.000000    0.000000   -0.000000
   14.072084   -0.191115   -0.193077   -0.193077    0.000000    0.000000   -0.000000
   14.314706   -0.125852   -0.128108   -0.128108    0.000000    0.000000   -0.000000
   14.557328   -0.067440   -0.069884   -0.069884    0.000000    0.000000   -0.000000
   14.799950   -0.014363   -0.016926   -0.016926    0.000000    0.000000   -0.000000
   15.042572    0.034527    0.031791    0.031791    0.000000    0.000000   -0.000000
   15.285194    0.080252    0.077486    0.077486    0.000000    0.000000   -0.000000
   15.527816    0.123985    0.120518    0.120518    0.000000    0.000000   -0.000000
   15.770438    0.162131    0.158459    0.158459    0.000000    0.000000   -0.000000
   16.013061    0.193972    0.199414    0.199414    0.000000    0.000000   -0.000000
   16.255683    0.229912    0.228474    0.228474    0.000000    0.000000   -0.000000
   16.498305    0.253354    0.247888    0.247888    0.000000    0.000000   -0.000000
   16.740927    0.278034    0.273904    0.273904    0.000000    0.000000   -0.000000
   16.983549    0.298714    0.286951    0.286951    0.000000    0.000000   -0.000000
   17.226171    0.307274    0.300099    0.300099    0.000000    0.000000   -0.000000
   17.468793    0.331271    0.326715    0.326715    0.000000    0.000000   -0.000000
   17.711416    0.346739    0.350746    0.350746    0.000000    0.000000   -0.000000
   17.954038    0.376108    0.373068    0.373068    0.000000    0.000000   -0.000000
   18.196660    0.396213    0.391773    0.391773    0.000000    0.000000   -0.000000
   18.439282    0.408597    0.408829    0.408829    0.000000    0.000000   -0.000000
   18.681904    0.423187    0.419437    0.419437    0.000000    0.000000   -0.000000
   18.924526    0.443782    0.439538    0.439538    0.000000    0.000000   -0.000000
   19.167148    0.461333    0.458036    0.458036    0.000000    0.000000   -0.000000
   19.409770    0.472601    0.471703    0.471703    0.000000    0.000000   -0.000000
   19.652393    0.489790    0.488755    0.488755    0.000000    0.000000   -0.000000
   19.895015    0.506131    0.504774    0.504774    0.000000    0.000000   -0.000000
   20.137637    0.521176    0.519624    0.519624    0.000000    0.000000   -0.000000
   20.380259    0.535112    0.533481    0.533481    0.000000    0.000000   -0.000000
   20.622881    0.548226    0.546562    0.546562    0.000000    0.000000   -0.000000
   20.865503    0.560654    0.558979    0.558979    0.000000    0.000000   -0.000000
   21.108125    0.572479    0.570807    0.570807    0.000000    0.000000   -0.000000
   21.350747    0.583760    0.582100    0.582100    0.000000    0.000000   -0.000000
   21.593370    0.594545    0.592901    0.592901    0.000000    0.000000   -0.000000
   21.835992    0.604870    0.603245    0.603245    0.000000    0.000000   -0.000000
   22.078614    0.614768    0.613164    0.613164    0.000000    0.000000   -0.000000
   22.321236    0.624267    0.622686    0.622686    0.000000    0.000000   -0.000000
   22.563858    0.633391    0.631835    0.631835    0.000000    0.000000   -0.000000
   22.806480    0.642164    0.640632    0.640632    0.000000    0.000000   -0.000000
   23.049102    0.650605    0.649097    0.649097    0.000000    0.000000   -0.000000
   23.291725    0.658732    0.657249    0.657249    0.000000    0.000000   -0.000000
   23.534347    0.666563    0.665104    0.665104    0.000000    0.000000   -0.000000
   23.776969    0.674112    0.672678    0.672678    0.000000    0.000000   -0.000000
   24.019591    0.681395    0.679985    0.679985    0.000000    0.000000   -0.000000

 The outermost node in the dielectric function lies at epsilon=  14.9


--------------------------------------------------------------------------------------------------------


    OPTICS:  cpu time    0.3335: real time    0.3370
    4ORBIT:  cpu time    0.0000: real time    0.0000



 total charge

# of ion     s       p       d       tot
----------------------------------------
  1        0.533   0.505   9.801  10.838
  2        0.533   0.505   9.801  10.838
  3        1.308   2.423   0.000   3.731
  4        1.308   2.423   0.000   3.731
------------------------------------------------
tot        3.682   5.855  19.602  29.140


 total amount of memory used by VASP on root node    71138. kBytes
========================================================================

   base      :      30000. kBytes
   nonl-proj :      17129. kBytes
   fftplans  :        888. kBytes
   grid      :       1728. kBytes
   one-center:         62. kBytes
   wavefun   :      21331. kBytes



 General timing and accounting informations for this job:
 ========================================================

                  Total CPU time used (sec):        9.745
                            User time (sec):        9.550
                          System time (sec):        0.195
                         Elapsed time (sec):        9.910

                   Maximum memory used (kb):   132722688.
                   Average memory used (kb):           0.

                          Minor page faults:        34963
                          Major page faults:          142
                 Voluntary context switches:           31
