 vasp.5.3.5 31Mar14 (build Jun 18 2014 15:50:15) complex                         
 executed on           CrayXC_GCC date 2015.08.13  17:04:37
 running on  144 total cores
 distrk:  each k-point on   24 cores,    6 groups
 distr:  one band on NCORES_PER_BAND=   1 cores,   24 groups


--------------------------------------------------------------------------------------------------------


 INCAR:
 POTCAR:    PAW_PBE Sn_d 06Sep2000                
 POTCAR:    PAW_PBE O 08Apr2002                   

 ----------------------------------------------------------------------------- 
|                                                                             |
|           W    W    AA    RRRRR   N    N  II  N    N   GGGG   !!!           |
|           W    W   A  A   R    R  NN   N  II  NN   N  G    G  !!!           |
|           W    W  A    A  R    R  N N  N  II  N N  N  G       !!!           |
|           W WW W  AAAAAA  RRRRR   N  N N  II  N  N N  G  GGG   !            |
|           WW  WW  A    A  R   R   N   NN  II  N   NN  G    G                |
|           W    W  A    A  R    R  N    N  II  N    N   GGGG   !!!           |
|                                                                             |
|      For optimal performance we recommend to set                            |
|        NCORE= 4 - approx SQRT( number of cores)                             |
|      NCORE specifies how many cores store one orbital (NPAR=cpu/NCORE).     |
|      This setting can  greatly improve the performance of VASP for DFT.     |
|      The default, NPAR=number of cores might be grossly inefficient         |
|      on modern multi-core architectures or massively parallel machines.     |
|      Do your own testing !!!!                                               |
|      Unfortunately you need to use the default for GW and RPA calculations. |
|      (for HF NCORE is supported but not extensively tested yet)             |
|                                                                             |
 ----------------------------------------------------------------------------- 


 ----------------------------------------------------------------------------- 
|                                                                             |
|           W    W    AA    RRRRR   N    N  II  N    N   GGGG   !!!           |
|           W    W   A  A   R    R  NN   N  II  NN   N  G    G  !!!           |
|           W    W  A    A  R    R  N N  N  II  N N  N  G       !!!           |
|           W WW W  AAAAAA  RRRRR   N  N N  II  N  N N  G  GGG   !            |
|           WW  WW  A    A  R   R   N   NN  II  N   NN  G    G                |
|           W    W  A    A  R    R  N    N  II  N    N   GGGG   !!!           |
|                                                                             |
|      You have enabled k-point parallelism (KPAR>1).                         |
|      This developmental code was originally  written by Paul Kent at ORNL,  |
|      and carefully double checked in Vienna.                                |
|      GW as well as linear response parallelism added by Martijn Marsman     |
|      and Georg Kresse.                                                      |
|      Carefully verify results versus KPAR=1.                                |
|      Report problems to Paul Kent and Vienna.                               |
|                                                                             |
 ----------------------------------------------------------------------------- 

 POTCAR:    PAW_PBE Sn_d 06Sep2000                
   VRHFIN =Sn: s2p2                                                             
   LEXCH  = PE                                                                  
   EATOM  =  1893.1092 eV,  139.1396 Ry                                         
                                                                                
   TITEL  = PAW_PBE Sn_d 06Sep2000                                              
   LULTRA =        F    use ultrasoft PP ?                                      
   IUNSCR =        1    unscreen: 0-lin 1-nonlin 2-no                           
   RPACOR =    2.300    partial core radius                                     
   POMASS =  118.710; ZVAL   =   14.000    mass and valenz                      
   RCORE  =    2.500    outmost cutoff radius                                   
   RWIGS  =    2.960; RWIGS  =    1.566    wigner-seitz radius (au A)           
   ENMAX  =  241.083; ENMIN  =  180.812 eV                                      
   ICORE  =        3    local potential                                         
   LCOR   =        T    correct aug charges                                     
   LPAW   =        T    paw PP                                                  
   EAUG   =  439.825                                                            
   DEXC   =    0.000                                                            
   RMAX   =    2.560    core radius for proj-oper                               
   RAUG   =    1.300    factor for augmentation sphere                          
   RDEP   =    2.659    radius for radial grids                                 
   RDEPT  =    2.046    core radius for aug-charge                              
                                                                                
   Atomic configuration                                                         
   12 entries                                                                   
     n  l   j            E        occ.                                          
     1  0  0.50    -29007.2859   2.0000                                         
     2  0  0.50     -4378.8056   2.0000                                         
     2  1  1.50     -3930.4293   6.0000                                         
     3  0  0.50      -845.0264   2.0000                                         
     3  1  1.50      -698.5725   6.0000                                         
     3  2  2.50      -473.2839  10.0000                                         
     4  0  0.50      -133.9036   2.0000                                         
     4  1  1.50       -89.6752   6.0000                                         
     4  2  2.50       -25.8375  10.0000                                         
     5  0  0.50       -10.5484   2.0000                                         
     5  1  0.50        -3.6940   2.0000                                         
     4  3  2.50        -2.7416   0.0000                                         
   Description                                                                  
     l       E           TYP  RCUT    TYP  RCUT                                 
     2    -25.8374624     23  2.500                                             
     2     -5.4423304     23  2.500                                             
     0    -10.5483727     23  2.500                                             
     0     13.6058260     23  2.500                                             
     1     -3.6939829     23  2.500                                             
     1      1.9821976     23  2.500                                             
     3     -1.3605826      7  2.500                                             
  local pseudopotential read in
  partial core-charges read in
  partial kinetic energy density read in
  atomic valenz-charges read in
  non local Contribution for L=           2  read in
    real space projection operators read in
  non local Contribution for L=           2  read in
    real space projection operators read in
  non local Contribution for L=           0  read in
    real space projection operators read in
  non local Contribution for L=           0  read in
    real space projection operators read in
  non local Contribution for L=           1  read in
    real space projection operators read in
  non local Contribution for L=           1  read in
    real space projection operators read in
    PAW grid and wavefunctions read in

   number of l-projection  operators is LMAX  =           6
   number of lm-projection operators is LMMAX =          18

 POTCAR:    PAW_PBE O 08Apr2002                   
   VRHFIN =O: s2p4                                                              
   LEXCH  = PE                                                                  
   EATOM  =   432.3788 eV,   31.7789 Ry                                         
                                                                                
   TITEL  = PAW_PBE O 08Apr2002                                                 
   LULTRA =        F    use ultrasoft PP ?                                      
   IUNSCR =        1    unscreen: 0-lin 1-nonlin 2-no                           
   RPACOR =    1.200    partial core radius                                     
   POMASS =   16.000; ZVAL   =    6.000    mass and valenz                      
   RCORE  =    1.520    outmost cutoff radius                                   
   RWIGS  =    1.550; RWIGS  =    0.820    wigner-seitz radius (au A)           
   ENMAX  =  400.000; ENMIN  =  300.000 eV                                      
   ICORE  =        2    local potential                                         
   LCOR   =        T    correct aug charges                                     
   LPAW   =        T    paw PP                                                  
   EAUG   =  605.392                                                            
   DEXC   =    0.000                                                            
   RMAX   =    1.553    core radius for proj-oper                               
   RAUG   =    1.300    factor for augmentation sphere                          
   RDEP   =    1.550    radius for radial grids                                 
   RDEPT  =    1.329    core radius for aug-charge                              
                                                                                
   Atomic configuration                                                         
    4 entries                                                                   
     n  l   j            E        occ.                                          
     1  0  0.50      -514.6923   2.0000                                         
     2  0  0.50       -23.9615   2.0000                                         
     2  1  0.50        -9.0305   4.0000                                         
     3  2  1.50        -9.5241   0.0000                                         
   Description                                                                  
     l       E           TYP  RCUT    TYP  RCUT                                 
     0    -23.9615318     23  1.200                                             
     0     -9.5240782     23  1.200                                             
     1     -9.0304911     23  1.520                                             
     1      8.1634956     23  1.520                                             
     2     -9.5240782      7  1.500                                             
  local pseudopotential read in
  partial core-charges read in
  partial kinetic energy density read in
  kinetic energy density of atom read in
  atomic valenz-charges read in
  non local Contribution for L=           0  read in
    real space projection operators read in
  non local Contribution for L=           0  read in
    real space projection operators read in
  non local Contribution for L=           1  read in
    real space projection operators read in
  non local Contribution for L=           1  read in
    real space projection operators read in
    PAW grid and wavefunctions read in

   number of l-projection  operators is LMAX  =           4
   number of lm-projection operators is LMMAX =           8

  PAW_PBE Sn_d 06Sep2000                :
 energy of atom  1       EATOM=-1893.1092
 kinetic energy error for atom=    0.0032 (will be added to EATOM!!)
  PAW_PBE O 08Apr2002                   :
 energy of atom  2       EATOM= -432.3788
 kinetic energy error for atom=    0.0224 (will be added to EATOM!!)


 POSCAR: O2 Sn                                   
  positions in direct lattice
  No initial velocities read in
 exchange correlation table for  LEXCH =        8
   RHO(1)=    0.500       N(1)  =     2000
   RHO(2)=  100.500       N(2)  =     4000



--------------------------------------------------------------------------------------------------------


 ion  position               nearest neighbor table
   1  0.000  0.000  0.000-   5 2.06   6 2.06   5 2.06   6 2.06   3 2.06   4 2.06   2 3.73   2 3.73
                             2 3.73   2 3.73   2 3.73   2 3.73   2 3.73   2 3.73
   2  0.500  0.500  0.500-   4 2.06   3 2.06   4 2.06   3 2.06   5 2.06   6 2.06   1 3.73   1 3.73
                             1 3.73   1 3.73   1 3.73   1 3.73   1 3.73   1 3.73
   3  0.305  0.305  0.000-   2 2.06   2 2.06   1 2.06
   4  0.695  0.695  0.000-   2 2.06   2 2.06   1 2.06
   5  0.195  0.805  0.500-   1 2.06   1 2.06   2 2.06
   6  0.805  0.195  0.500-   1 2.06   1 2.06   2 2.06


IMPORTANT INFORMATION: All symmetrisations will be switched off!
NOSYMM: (Re-)initialisation of all symmetry stuff for point group C_1.



 KPOINTS: Automatically generated mesh            
  k-points in reciprocal lattice
Space group operators:
 irot       det(A)        alpha          n_x          n_y          n_z        tau_x        tau_y        tau_z
    1     1.000000     0.000000     1.000000     0.000000     0.000000     0.000000     0.000000     0.000000

 ----------------------------------------------------------------------------- 
|                                                                             |
|           W    W    AA    RRRRR   N    N  II  N    N   GGGG   !!!           |
|           W    W   A  A   R    R  NN   N  II  NN   N  G    G  !!!           |
|           W    W  A    A  R    R  N N  N  II  N N  N  G       !!!           |
|           W WW W  AAAAAA  RRRRR   N  N N  II  N  N N  G  GGG   !            |
|           WW  WW  A    A  R   R   N   NN  II  N   NN  G    G                |
|           W    W  A    A  R    R  N    N  II  N    N   GGGG   !!!           |
|                                                                             |
|      Your generating k-point grid is not commensurate to the symmetry       |
|      of the lattice.  This can cause   slow convergence with respect        |
|      to k-points for HF type calculations                                   |
|      suggested SOLUTIONS:                                                   |
|       ) if not already the case, use automatic k-point generation           |
|       ) shift your grid to Gamma (G) (e.g. required for hex or fcc lattice) |
|                                                                             |
 ----------------------------------------------------------------------------- 

 
 Subroutine IBZKPT_HF returns following result:
 ==============================================
 
 Found     98 k-points in 1st BZ
 the following     98 k-points will be used (e.g. in the exchange kernel)
 Following reciprocal coordinates:   # in IRBZ
  0.000000  0.000000  0.062500       1 t-inv F
  0.200000  0.000000  0.062500       2 t-inv F
  0.400000  0.000000  0.062500       3 t-inv F
  0.200000  0.200000  0.062500       4 t-inv F
  0.400000  0.200000  0.062500       5 t-inv F
  0.400000  0.400000  0.062500       6 t-inv F
  0.000000  0.000000  0.187500       7 t-inv F
  0.200000  0.000000  0.187500       8 t-inv F
  0.400000  0.000000  0.187500       9 t-inv F
  0.200000  0.200000  0.187500      10 t-inv F
  0.400000  0.200000  0.187500      11 t-inv F
  0.400000  0.400000  0.187500      12 t-inv F
  0.000000  0.000000  0.312500      13 t-inv F
  0.200000  0.000000  0.312500      14 t-inv F
  0.400000  0.000000  0.312500      15 t-inv F
  0.200000  0.200000  0.312500      16 t-inv F
  0.400000  0.200000  0.312500      17 t-inv F
  0.400000  0.400000  0.312500      18 t-inv F
  0.000000  0.000000  0.437500      19 t-inv F
  0.200000  0.000000  0.437500      20 t-inv F
  0.400000  0.000000  0.437500      21 t-inv F
  0.200000  0.200000  0.437500      22 t-inv F
  0.400000  0.200000  0.437500      23 t-inv F
  0.400000  0.400000  0.437500      24 t-inv F
  0.000000  0.000000  0.000000      25 t-inv F
  0.000000  0.050000  0.000000      26 t-inv F
  0.000000  0.100000  0.000000      27 t-inv F
  0.000000  0.150000  0.000000      28 t-inv F
  0.000000  0.200000  0.000000      29 t-inv F
  0.000000  0.250000  0.000000      30 t-inv F
  0.000000  0.300000  0.000000      31 t-inv F
  0.000000  0.350000  0.000000      32 t-inv F
  0.000000  0.400000  0.000000      33 t-inv F
  0.000000  0.450000  0.000000      34 t-inv F
  0.000000  0.500000  0.000000      35 t-inv F
  0.050000  0.500000  0.000000      36 t-inv F
  0.100000  0.500000  0.000000      37 t-inv F
  0.150000  0.500000  0.000000      38 t-inv F
  0.200000  0.500000  0.000000      39 t-inv F
  0.250000  0.500000  0.000000      40 t-inv F
  0.300000  0.500000  0.000000      41 t-inv F
  0.350000  0.500000  0.000000      42 t-inv F
  0.400000  0.500000  0.000000      43 t-inv F
  0.450000  0.500000  0.000000      44 t-inv F
  0.500000  0.500000  0.000000      45 t-inv F
  0.464286  0.464286  0.000000      46 t-inv F
  0.428571  0.428571  0.000000      47 t-inv F
  0.392857  0.392857  0.000000      48 t-inv F
  0.357143  0.357143  0.000000      49 t-inv F
  0.321429  0.321429  0.000000      50 t-inv F
  0.285714  0.285714  0.000000      51 t-inv F
  0.250000  0.250000  0.000000      52 t-inv F
  0.214286  0.214286  0.000000      53 t-inv F
  0.178571  0.178571  0.000000      54 t-inv F
  0.142857  0.142857  0.000000      55 t-inv F
  0.107143  0.107143  0.000000      56 t-inv F
  0.071429  0.071429  0.000000      57 t-inv F
  0.035714  0.035714  0.000000      58 t-inv F
  0.000000  0.000000  0.000000      59 t-inv F
  0.000000  0.000000  0.033333      60 t-inv F
  0.000000  0.000000  0.066667      61 t-inv F
  0.000000  0.000000  0.100000      62 t-inv F
  0.000000  0.000000  0.133333      63 t-inv F
  0.000000  0.000000  0.166667      64 t-inv F
  0.000000  0.000000  0.200000      65 t-inv F
  0.000000  0.000000  0.233333      66 t-inv F
  0.000000  0.000000  0.266667      67 t-inv F
  0.000000  0.000000  0.300000      68 t-inv F
  0.000000  0.000000  0.333333      69 t-inv F
  0.000000  0.000000  0.366667      70 t-inv F
  0.000000  0.000000  0.400000      71 t-inv F
  0.000000  0.000000  0.433333      72 t-inv F
  0.000000  0.000000  0.466667      73 t-inv F
  0.000000  0.000000  0.500000      74 t-inv F
  0.000000  0.000000 -0.062500       1 t-inv T
 -0.200000  0.000000 -0.062500       2 t-inv T
 -0.400000  0.000000 -0.062500       3 t-inv T
 -0.200000 -0.200000 -0.062500       4 t-inv T
 -0.400000 -0.200000 -0.062500       5 t-inv T
 -0.400000 -0.400000 -0.062500       6 t-inv T
  0.000000  0.000000 -0.187500       7 t-inv T
 -0.200000  0.000000 -0.187500       8 t-inv T
 -0.400000  0.000000 -0.187500       9 t-inv T
 -0.200000 -0.200000 -0.187500      10 t-inv T
 -0.400000 -0.200000 -0.187500      11 t-inv T
 -0.400000 -0.400000 -0.187500      12 t-inv T
  0.000000  0.000000 -0.312500      13 t-inv T
 -0.200000  0.000000 -0.312500      14 t-inv T
 -0.400000  0.000000 -0.312500      15 t-inv T
 -0.200000 -0.200000 -0.312500      16 t-inv T
 -0.400000 -0.200000 -0.312500      17 t-inv T
 -0.400000 -0.400000 -0.312500      18 t-inv T
  0.000000  0.000000 -0.437500      19 t-inv T
 -0.200000  0.000000 -0.437500      20 t-inv T
 -0.400000  0.000000 -0.437500      21 t-inv T
 -0.200000 -0.200000 -0.437500      22 t-inv T
 -0.400000 -0.200000 -0.437500      23 t-inv T
 -0.400000 -0.400000 -0.437500      24 t-inv T


--------------------------------------------------------------------------------------------------------




 Dimension of arrays:
   k-points           NKPTS =     74   k-points in BZ     NKDIM =     98   number of bands    NBANDS=     48
   number of dos      NEDOS =   1000   number of ions     NIONS =      6
   non local maximal  LDIM  =      6   non local SUM 2l+1 LMDIM =     18
   total plane-waves  NPLWV =  31104
   max r-space proj   IRMAX =      1   max aug-charges    IRDMAX=  19442
   dimension x,y,z NGX =    36 NGY =   36 NGZ =   24
   dimension x,y,z NGXF=    72 NGYF=   72 NGZF=   48
   support grid    NGXF=    72 NGYF=   72 NGZF=   48
   ions per type =               2   4
 NGX,Y,Z   is equivalent  to a cutoff of  12.52, 12.52, 12.63 a.u.
 NGXF,Y,Z  is equivalent  to a cutoff of  25.04, 25.04, 25.26 a.u.


 I would recommend the setting:
   dimension x,y,z NGX =    35 NGY =   35 NGZ =   23
 SYSTEM =  Name                                    
 POSCAR =  O2 Sn                                   

 Startparameter for this run:
   NWRITE =      2    write-flag & timer
   PREC   = accura    normal or accurate (medium, high low for compatibility)
   ISTART =      1    job   : 0-new  1-cont  2-samecut
   ICHARG =      0    charge: 1-file 2-atom 10-const
   ISPIN  =      1    spin polarized calculation?
   LNONCOLLINEAR =      F non collinear calculations
   LSORBIT =      F    spin-orbit coupling
   INIWAV =      1    electr: 0-lowe 1-rand  2-diag
   LASPH  =      F    aspherical Exc in radial PAW
   METAGGA=      F    non-selfconsistent MetaGGA calc.

 Electronic Relaxation 1
   ENCUT  =  500.0 eV  36.75 Ry    6.06 a.u.   8.72  8.72  5.76*2*pi/ulx,y,z
   ENINI  =  500.0     initial cutoff
   ENAUG  =  605.4 eV  augmentation charge cutoff
   NELM   =      5;   NELMIN=  5; NELMDL=  0     # of ELM steps 
   EDIFF  = 0.1E-05   stopping-criterion for ELM
   LREAL  =      F    real-space projection
   NLSPLINE    = F    spline interpolate recip. space projectors
   LCOMPAT=      F    compatible to vasp.4.4
   GGA_COMPAT  = T    GGA compatible to vasp.4.4-vasp.4.6
   LMAXPAW     = -100 max onsite density
   LMAXMIX     =    4 max onsite mixed and CHGCAR
   VOSKOWN=      0    Vosko Wilk Nusair interpolation
   ROPT   =    0.00000   0.00000
 Ionic relaxation
   EDIFFG = -.5E-02   stopping-criterion for IOM
   NSW    =      0    number of steps for IOM
   NBLOCK =      1;   KBLOCK =      1    inner block; outer block 
   IBRION =     -1    ionic relax: 0-MD 1-quasi-New 2-CG
   NFREE  =      0    steps in history (QN), initial steepest desc. (CG)
   ISIF   =      2    stress and relaxation
   IWAVPR =     10    prediction:  0-non 1-charg 2-wave 3-comb
   ISYM   =      0    0-nonsym 1-usesym 2-fastsym
   LCORR  =      T    Harris-Foulkes like correction to forces

   POTIM  = 0.5000    time-step for ionic-motion
   TEIN   =    0.0    initial temperature
   TEBEG  =    0.0;   TEEND  =   0.0 temperature during run
   SMASS  =  -3.00    Nose mass-parameter (am)
   estimated Nose-frequenzy (Omega)   =  0.10E-29 period in steps =****** mass=  -0.522E-27a.u.
   SCALEE = 1.0000    scale energy and forces
   NPACO  =    256;   APACO  = 16.0  distance and # of slots for P.C.
   PSTRESS=    0.0 pullay stress

  Mass of Ions in am
   POMASS = 118.71 16.00
  Ionic Valenz
   ZVAL   =  14.00  6.00
  Atomic Wigner-Seitz radii
   RWIGS  =  -1.00 -1.00
  virtual crystal weights 
   VCA    =   1.00  1.00
   NELECT =      52.0000    total number of electrons
   NUPDOWN=      -1.0000    fix difference up-down

 DOS related values:
   EMIN   =  10.00;   EMAX   =-10.00  energy-range for DOS
   EFERMI =   0.00
   ISMEAR =     0;   SIGMA  =   0.05  broadening in eV -4-tet -1-fermi 0-gaus

 Electronic relaxation 2 (details)
   IALGO  =     38    algorithm
   LDIAG  =      T    sub-space diagonalisation (order eigenvalues)
   LSUBROT=      F    optimize rotation matrix (better conditioning)
   TURBO    =      0    0=normal 1=particle mesh
   IRESTART =      0    0=no restart 2=restart with 2 vectors
   NREBOOT  =      0    no. of reboots
   NMIN     =      0    reboot dimension
   EREF     =   0.00    reference energy to select bands
   IMIX   =      1    mixing-type and parameters
     AMIX     =   0.40;   BMIX     =  1.00
     AMIX_MAG =   1.60;   BMIX_MAG =  1.00
     AMIN     =   0.10
     WC   =   100.;   INIMIX=   1;  MIXPRE=   1;  MAXMIX= -45

 Intra band minimization:
   WEIMIN = 0.0000     energy-eigenvalue tresh-hold
   EBREAK =  0.52E-08  absolut break condition
   DEPER  =   0.30     relativ break condition  

   TIME   =   0.40     timestep for ELM

  volume/ion in A,a.u.               =      12.03        81.18
  Fermi-wavevector in a.u.,A,eV,Ry     =   1.467615  2.773390 29.305499  2.153893
  Thomas-Fermi vector in A             =   2.583211

 Write flags
   LWAVE  =      T    write WAVECAR
   LCHARG =      T    write CHGCAR
   LVTOT  =      F    write LOCPOT, total local potential
   LVHAR  =      F    write LOCPOT, Hartree potential only
   LELF   =      F    write electronic localiz. function (ELF)
   LORBIT =     10    0 simple, 1 ext, 2 COOP (PROOUT)


 Dipole corrections
   LMONO  =      F    monopole corrections only (constant potential shift)
   LDIPOL =      F    correct potential (dipole corrections)
   IDIPOL =      0    1-x, 2-y, 3-z, 4-all directions 
   EPSILON=  1.0000000 bulk dielectric constant

 Core level calculations are selected ICORELEVEL =  1
 Exchange correlation treatment:
   GGA     =    PE    GGA type
   LEXCH   =     8    internal setting for exchange type
   VOSKOWN=      0    Vosko Wilk Nusair interpolation
   EXXOEP  =     0    0=HF, 1=EXX-LHF (local Hartree Fock) 2=EXX OEP
   LHFCALC =     T    Hartree Fock is set to
   LSYMGRAD=     F    symmetrize gradient (conserves proper symmetry)
   PRECFOCK=normal    Normal, Fast or Accurate (Low or Medium for compatibility)
   LRHFCALC=     F    long range Hartree Fock
   LRSCOR  =     F    long range correlation only (use DFT for short range part)
   LTHOMAS =     F    Thomas Fermi screening in HF
   LMODELHF=     F    short range full HF, long range fraction AEXX
   ENCUT4O =  -1.0   cutoff for four orbital integrals eV
   LMAXFOCK=     4    L truncation for augmentation on plane wave grid
   LMAXFOCKAE=  -1    L truncation for all-electron charge restoration on plane wave grid
   NMAXFOCKAE=   1    number of basis functions for all-electron charge restoration
   LFOCKAEDFT=     F  apply the AE augmentation even for DFT
   NKREDX  =     1    reduce k-point grid by
   NKREDY  =     1    reduce k-point grid by
   NKREDZ  =     1    reduce k-point grid by
   SHIFTRED=     F    shift reduced grid of Gamma
   HFKIDENT=     F    idential grid for each k-point
   ODDONLY =     F    use only odd q-grid points
   EVENONLY=     F    use only even q-grid points
   HFALPHA =   -1.0000 decay constant for conv. correction
   MCALPHA =    0.0000 extent of test-charge in conv. correction in multipole expansion
   AEXX    =    0.2500 exact exchange contribution
   HFSCREEN=    0.2070 screening length (either q_TF or 0.3 A-1)
   HFSCREENC=   0.2070 screening length for correlation (either q_TF or 0.3 A-1)
   HFRCUT  =    0.0000 spherical cutoff for potential kernel
   ALDAX   =    0.7500 LDA exchange part
   AGGAX   =    0.7500 GGA exchange part
   ALDAC   =    1.0000 LDA correlation
   AGGAC   =    1.0000 GGA correlation
   NBANDSGWLOW=     1    first orbital included in HF term
   ENCUTFOCK=  -1.0 apply spherical cutoff to Coloumb kernel
 Linear response parameters
   LEPSILON=     F    determine dielectric tensor
   LRPA    =     F    only Hartree local field effects (RPA)
   LNABLA  =     F    use nabla operator in PAW spheres
   LVEL    =     F    velocity operator in full k-point grid
   LINTERFAST=   F  fast interpolation
   KINTER  =     0    interpolate to denser k-point grid
   CSHIFT  =0.1000    complex shift for real part using Kramers Kronig
   OMEGAMAX=  -1.0    maximum frequency
   DEG_THRESHOLD= 0.2000000E-02 threshold for treating states as degnerate
   RTIME   =    0.100 relaxation time in fs

 Orbital magnetization related:
   ORBITALMAG=     F  switch on orbital magnetization
   LCHIMAG   =     F  perturbation theory with respect to B field
   DQ        =  0.001000  dq finite difference perturbation B field



--------------------------------------------------------------------------------------------------------


 Static calculation
 charge density and potential will be updated during run
 non-spin polarized calculation
 Variant of blocked Davidson
 Davidson routine will perform the subspace rotation
 perform sub-space diagonalisation
    after iterative eigenvector-optimisation
 Kerker-like  mixing scheme
 using additional bands           22
 reciprocal scheme for non local part
 use partial core corrections
 calculate Harris-corrections to forces   (improved forces if not selfconsistent)
 use gradient corrections 
 use of overlap-Matrix (Vanderbilt PP)
 Gauss-broadening in eV      SIGMA  =   0.05


--------------------------------------------------------------------------------------------------------


  energy-cutoff  :      500.00
  volume of cell :       72.18
      direct lattice vectors                 reciprocal lattice vectors
     4.779999161  0.000000000  0.000000000     0.209205058  0.000000000  0.000000000
     0.000000000  4.779999161  0.000000000     0.000000000  0.209205058  0.000000000
     0.000000000  0.000000000  3.158900000     0.000000000  0.000000000  0.316565893

  length of vectors
     4.779999161  4.779999161  3.158900000     0.209205058  0.209205058  0.316565893



 old parameters found on file WAVECAR:
  energy-cutoff  :      500.00
  volume of cell :       72.18
      direct lattice vectors                 reciprocal lattice vectors
     4.779999161  0.000000000  0.000000000     0.209205058  0.000000000  0.000000000
     0.000000000  4.779999161  0.000000000     0.000000000  0.209205058  0.000000000
     0.000000000  0.000000000  3.158900000     0.000000000  0.000000000  0.316565893

  length of vectors


 k-points in units of 2pi/SCALE and weight: Automatically generated mesh            
   0.00000000  0.00000000  0.01978537       0.010
   0.04184101  0.00000000  0.01978537       0.040
   0.08368202  0.00000000  0.01978537       0.040
   0.04184101  0.04184101  0.01978537       0.040
   0.08368202  0.04184101  0.01978537       0.080
   0.08368202  0.08368202  0.01978537       0.040
   0.00000000  0.00000000  0.05935610       0.010
   0.04184101  0.00000000  0.05935610       0.040
   0.08368202  0.00000000  0.05935610       0.040
   0.04184101  0.04184101  0.05935610       0.040
   0.08368202  0.04184101  0.05935610       0.080
   0.08368202  0.08368202  0.05935610       0.040
   0.00000000  0.00000000  0.09892684       0.010
   0.04184101  0.00000000  0.09892684       0.040
   0.08368202  0.00000000  0.09892684       0.040
   0.04184101  0.04184101  0.09892684       0.040
   0.08368202  0.04184101  0.09892684       0.080
   0.08368202  0.08368202  0.09892684       0.040
   0.00000000  0.00000000  0.13849758       0.010
   0.04184101  0.00000000  0.13849758       0.040
   0.08368202  0.00000000  0.13849758       0.040
   0.04184101  0.04184101  0.13849758       0.040
   0.08368202  0.04184101  0.13849758       0.080
   0.08368202  0.08368202  0.13849758       0.040
   0.00000000  0.00000000  0.00000000       0.000
   0.00000000  0.01046025  0.00000000       0.000
   0.00000000  0.02092051  0.00000000       0.000
   0.00000000  0.03138076  0.00000000       0.000
   0.00000000  0.04184101  0.00000000       0.000
   0.00000000  0.05230126  0.00000000       0.000
   0.00000000  0.06276152  0.00000000       0.000
   0.00000000  0.07322177  0.00000000       0.000
   0.00000000  0.08368203  0.00000000       0.000
   0.00000000  0.09414228  0.00000000       0.000
   0.00000000  0.10460253  0.00000000       0.000
   0.01046025  0.10460253  0.00000000       0.000
   0.02092051  0.10460253  0.00000000       0.000
   0.03138076  0.10460253  0.00000000       0.000
   0.04184101  0.10460253  0.00000000       0.000
   0.05230126  0.10460253  0.00000000       0.000
   0.06276152  0.10460253  0.00000000       0.000
   0.07322177  0.10460253  0.00000000       0.000
   0.08368203  0.10460253  0.00000000       0.000
   0.09414228  0.10460253  0.00000000       0.000
   0.10460253  0.10460253  0.00000000       0.000
   0.09713092  0.09713092  0.00000000       0.000
   0.08965931  0.08965931  0.00000000       0.000
   0.08218770  0.08218770  0.00000000       0.000
   0.07471609  0.07471609  0.00000000       0.000
   0.06724448  0.06724448  0.00000000       0.000
   0.05977288  0.05977288  0.00000000       0.000
   0.05230126  0.05230126  0.00000000       0.000
   0.04482965  0.04482965  0.00000000       0.000
   0.03735804  0.03735804  0.00000000       0.000
   0.02988643  0.02988643  0.00000000       0.000
   0.02241483  0.02241483  0.00000000       0.000
   0.01494322  0.01494322  0.00000000       0.000
   0.00747161  0.00747161  0.00000000       0.000
   0.00000000  0.00000000  0.00000000       0.000
   0.00000000  0.00000000  0.01055220       0.000
   0.00000000  0.00000000  0.02110439       0.000
   0.00000000  0.00000000  0.03165659       0.000
   0.00000000  0.00000000  0.04220879       0.000
   0.00000000  0.00000000  0.05276098       0.000
   0.00000000  0.00000000  0.06331318       0.000
   0.00000000  0.00000000  0.07386538       0.000
   0.00000000  0.00000000  0.08441758       0.000
   0.00000000  0.00000000  0.09496977       0.000
   0.00000000  0.00000000  0.10552197       0.000
   0.00000000  0.00000000  0.11607416       0.000
   0.00000000  0.00000000  0.12662637       0.000
   0.00000000  0.00000000  0.13717857       0.000
   0.00000000  0.00000000  0.14773076       0.000
   0.00000000  0.00000000  0.15828295       0.000

 k-points in reciprocal lattice and weights: Automatically generated mesh            
   0.00000000  0.00000000  0.06250000       0.010
   0.20000000  0.00000000  0.06250000       0.040
   0.40000000  0.00000000  0.06250000       0.040
   0.20000000  0.20000000  0.06250000       0.040
   0.40000000  0.20000000  0.06250000       0.080
   0.40000000  0.40000000  0.06250000       0.040
   0.00000000  0.00000000  0.18750000       0.010
   0.20000000  0.00000000  0.18750000       0.040
   0.40000000  0.00000000  0.18750000       0.040
   0.20000000  0.20000000  0.18750000       0.040
   0.40000000  0.20000000  0.18750000       0.080
   0.40000000  0.40000000  0.18750000       0.040
   0.00000000  0.00000000  0.31250000       0.010
   0.20000000  0.00000000  0.31250000       0.040
   0.40000000  0.00000000  0.31250000       0.040
   0.20000000  0.20000000  0.31250000       0.040
   0.40000000  0.20000000  0.31250000       0.080
   0.40000000  0.40000000  0.31250000       0.040
   0.00000000  0.00000000  0.43750000       0.010
   0.20000000  0.00000000  0.43750000       0.040
   0.40000000  0.00000000  0.43750000       0.040
   0.20000000  0.20000000  0.43750000       0.040
   0.40000000  0.20000000  0.43750000       0.080
   0.40000000  0.40000000  0.43750000       0.040
   0.00000000  0.00000000  0.00000000       0.000
   0.00000000  0.05000000  0.00000000       0.000
   0.00000000  0.10000000  0.00000000       0.000
   0.00000000  0.15000001  0.00000000       0.000
   0.00000000  0.20000000  0.00000000       0.000
   0.00000000  0.25000000  0.00000000       0.000
   0.00000000  0.30000001  0.00000000       0.000
   0.00000000  0.34999999  0.00000000       0.000
   0.00000000  0.40000001  0.00000000       0.000
   0.00000000  0.45000002  0.00000000       0.000
   0.00000000  0.50000000  0.00000000       0.000
   0.05000000  0.50000000  0.00000000       0.000
   0.10000000  0.50000000  0.00000000       0.000
   0.15000001  0.50000000  0.00000000       0.000
   0.20000000  0.50000000  0.00000000       0.000
   0.25000000  0.50000000  0.00000000       0.000
   0.30000001  0.50000000  0.00000000       0.000
   0.34999999  0.50000000  0.00000000       0.000
   0.40000001  0.50000000  0.00000000       0.000
   0.45000002  0.50000000  0.00000000       0.000
   0.50000000  0.50000000  0.00000000       0.000
   0.46428570  0.46428570  0.00000000       0.000
   0.42857143  0.42857143  0.00000000       0.000
   0.39285713  0.39285713  0.00000000       0.000
   0.35714287  0.35714287  0.00000000       0.000
   0.32142857  0.32142857  0.00000000       0.000
   0.28571430  0.28571430  0.00000000       0.000
   0.25000000  0.25000000  0.00000000       0.000
   0.21428570  0.21428570  0.00000000       0.000
   0.17857140  0.17857140  0.00000000       0.000
   0.14285713  0.14285713  0.00000000       0.000
   0.10714287  0.10714287  0.00000000       0.000
   0.07142860  0.07142860  0.00000000       0.000
   0.03571427  0.03571427  0.00000000       0.000
   0.00000000  0.00000000  0.00000000       0.000
   0.00000000  0.00000000  0.03333334       0.000
   0.00000000  0.00000000  0.06666667       0.000
   0.00000000  0.00000000  0.10000001       0.000
   0.00000000  0.00000000  0.13333334       0.000
   0.00000000  0.00000000  0.16666667       0.000
   0.00000000  0.00000000  0.20000002       0.000
   0.00000000  0.00000000  0.23333335       0.000
   0.00000000  0.00000000  0.26666668       0.000
   0.00000000  0.00000000  0.30000001       0.000
   0.00000000  0.00000000  0.33333334       0.000
   0.00000000  0.00000000  0.36666667       0.000
   0.00000000  0.00000000  0.40000004       0.000
   0.00000000  0.00000000  0.43333337       0.000
   0.00000000  0.00000000  0.46666670       0.000
   0.00000000  0.00000000  0.50000000       0.000

 position of ions in fractional coordinates (direct lattice) 
   0.00000000  0.00000000  0.00000000
   0.50000000  0.50000000  0.50000000
   0.30544534  0.30544534  0.00000000
   0.69455466  0.69455466  0.00000000
   0.19455466  0.80544534  0.50000000
   0.80544534  0.19455466  0.50000000

 position of ions in cartesian coordinates  (Angst):
   0.00000000  0.00000000  0.00000000
   2.38999958  2.38999958  1.57945000
   1.46002845  1.46002845  0.00000000
   3.31997071  3.31997071  0.00000000
   0.92997113  3.85002803  1.57945000
   3.85002803  0.92997113  1.57945000



--------------------------------------------------------------------------------------------------------


 k-point  1 :   0.0000 0.0000 0.0625  plane waves:    1863
 k-point  2 :   0.2000 0.0000 0.0625  plane waves:    1840
 k-point  3 :   0.4000 0.0000 0.0625  plane waves:    1832
 k-point  4 :   0.2000 0.2000 0.0625  plane waves:    1833
 k-point  5 :   0.4000 0.2000 0.0625  plane waves:    1827
 k-point  6 :   0.4000 0.4000 0.0625  plane waves:    1819
 k-point  7 :   0.0000 0.0000 0.1875  plane waves:    1831
 k-point  8 :   0.2000 0.0000 0.1875  plane waves:    1833
 k-point  9 :   0.4000 0.0000 0.1875  plane waves:    1828
 k-point 10 :   0.2000 0.2000 0.1875  plane waves:    1828
 k-point 11 :   0.4000 0.2000 0.1875  plane waves:    1830
 k-point 12 :   0.4000 0.4000 0.1875  plane waves:    1834
 k-point 13 :   0.0000 0.0000 0.3125  plane waves:    1828
 k-point 14 :   0.2000 0.0000 0.3125  plane waves:    1835
 k-point 15 :   0.4000 0.0000 0.3125  plane waves:    1833
 k-point 16 :   0.2000 0.2000 0.3125  plane waves:    1825
 k-point 17 :   0.4000 0.2000 0.3125  plane waves:    1833
 k-point 18 :   0.4000 0.4000 0.3125  plane waves:    1830
 k-point 19 :   0.0000 0.0000 0.4375  plane waves:    1824
 k-point 20 :   0.2000 0.0000 0.4375  plane waves:    1825
 k-point 21 :   0.4000 0.0000 0.4375  plane waves:    1836
 k-point 22 :   0.2000 0.2000 0.4375  plane waves:    1844
 k-point 23 :   0.4000 0.2000 0.4375  plane waves:    1841
 k-point 24 :   0.4000 0.4000 0.4375  plane waves:    1833
 k-point 25 :   0.0000 0.0000 0.0000  plane waves:    1851
 k-point 26 :   0.0000 0.0500 0.0000  plane waves:    1855
 k-point 27 :   0.0000 0.1000 0.0000  plane waves:    1863
 k-point 28 :   0.0000 0.1500 0.0000  plane waves:    1841
 k-point 29 :   0.0000 0.2000 0.0000  plane waves:    1843
 k-point 30 :   0.0000 0.2500 0.0000  plane waves:    1839
 k-point 31 :   0.0000 0.3000 0.0000  plane waves:    1836
 k-point 32 :   0.0000 0.3500 0.0000  plane waves:    1834
 k-point 33 :   0.0000 0.4000 0.0000  plane waves:    1834
 k-point 34 :   0.0000 0.4500 0.0000  plane waves:    1838
 k-point 35 :   0.0000 0.5000 0.0000  plane waves:    1850
 k-point 36 :   0.0500 0.5000 0.0000  plane waves:    1836
 k-point 37 :   0.1000 0.5000 0.0000  plane waves:    1834
 k-point 38 :   0.1500 0.5000 0.0000  plane waves:    1834
 k-point 39 :   0.2000 0.5000 0.0000  plane waves:    1832
 k-point 40 :   0.2500 0.5000 0.0000  plane waves:    1830
 k-point 41 :   0.3000 0.5000 0.0000  plane waves:    1820
 k-point 42 :   0.3500 0.5000 0.0000  plane waves:    1814
 k-point 43 :   0.4000 0.5000 0.0000  plane waves:    1814
 k-point 44 :   0.4500 0.5000 0.0000  plane waves:    1822
 k-point 45 :   0.5000 0.5000 0.0000  plane waves:    1824
 k-point 46 :   0.4643 0.4643 0.0000  plane waves:    1822
 k-point 47 :   0.4286 0.4286 0.0000  plane waves:    1820
 k-point 48 :   0.3929 0.3929 0.0000  plane waves:    1822
 k-point 49 :   0.3571 0.3571 0.0000  plane waves:    1822
 k-point 50 :   0.3214 0.3214 0.0000  plane waves:    1818
 k-point 51 :   0.2857 0.2857 0.0000  plane waves:    1818
 k-point 52 :   0.2500 0.2500 0.0000  plane waves:    1834
 k-point 53 :   0.2143 0.2143 0.0000  plane waves:    1840
 k-point 54 :   0.1786 0.1786 0.0000  plane waves:    1840
 k-point 55 :   0.1429 0.1429 0.0000  plane waves:    1855
 k-point 56 :   0.1071 0.1071 0.0000  plane waves:    1857
 k-point 57 :   0.0714 0.0714 0.0000  plane waves:    1851
 k-point 58 :   0.0357 0.0357 0.0000  plane waves:    1851
 k-point 59 :   0.0000 0.0000 0.0000  plane waves:    1851
 k-point 60 :   0.0000 0.0000 0.0333  plane waves:    1847
 k-point 61 :   0.0000 0.0000 0.0667  plane waves:    1863
 k-point 62 :   0.0000 0.0000 0.1000  plane waves:    1871
 k-point 63 :   0.0000 0.0000 0.1333  plane waves:    1859
 k-point 64 :   0.0000 0.0000 0.1667  plane waves:    1851
 k-point 65 :   0.0000 0.0000 0.2000  plane waves:    1839
 k-point 66 :   0.0000 0.0000 0.2333  plane waves:    1839
 k-point 67 :   0.0000 0.0000 0.2667  plane waves:    1824
 k-point 68 :   0.0000 0.0000 0.3000  plane waves:    1828
 k-point 69 :   0.0000 0.0000 0.3333  plane waves:    1844
 k-point 70 :   0.0000 0.0000 0.3667  plane waves:    1832
 k-point 71 :   0.0000 0.0000 0.4000  plane waves:    1824
 k-point 72 :   0.0000 0.0000 0.4333  plane waves:    1816
 k-point 73 :   0.0000 0.0000 0.4667  plane waves:    1828
 k-point 74 :   0.0000 0.0000 0.5000  plane waves:    1836

 maximum and minimum number of plane-waves per node :      1871     1814

 maximum number of plane-waves:      1871
 maximum index in each direction: 
   IXMAX=    8   IYMAX=    8   IZMAX=    5
   IXMIN=   -9   IYMIN=   -9   IZMIN=   -6

 NGX is ok and might be reduce to  36
 NGY is ok and might be reduce to  36
 NGZ is ok and might be reduce to  24

 serial   3D FFT for wavefunctions
 parallel 3D FFT for charge:
    minimum data exchange during FFTs selected (reduces bandwidth)


 FFT grid for exact exchange (Hartree Fock) 
  NGX = 28; NGY = 28; NGZ = 18


 Radii for the augmentation spheres in the non-local exchange
 for species   1 augmentation radius   1.362 (default was   1.089)
       energy cutoff for augmentation   2000.0
 for species   2 augmentation radius   0.902 (default was   0.722)
       energy cutoff for augmentation   2000.0

 total amount of memory used by VASP on root node    78577. kBytes
========================================================================

   base      :      30000. kBytes
   nonl-proj :      40075. kBytes
   fftplans  :        499. kBytes
   grid      :       1862. kBytes
   one-center:         93. kBytes
   HF        :        129. kBytes
   nonlr-proj:       1316. kBytes
   wavefun   :       4603. kBytes

     INWAV:  cpu time    1.62: real time    1.86
 charge density for first step will be calculated from the start-wavefunctions


--------------------------------------------------------------------------------------------------------


 Maximum index for augmentation-charges          857 (set IRDMAX)


--------------------------------------------------------------------------------------------------------


 initial charge from wavefunction
 First call to EWALD:  gamma=   0.426
 Maximum number of real-space cells 2x 2x 3
 Maximum number of reciprocal cells 3x 3x 2

 FEWALD executed in parallel
    FEWALD:  cpu time    0.00: real time    0.00


----------------------------------------- Iteration    1(   1)  ---------------------------------------


    POTLOK:  cpu time    0.04: real time    0.04
    SETDIJ:  cpu time    0.00: real time    0.00
     EDDAV:  cpu time  216.29: real time  216.42
       DOS:  cpu time    0.00: real time    0.00
    CHARGE:  cpu time    0.01: real time    0.01
    MIXING:  cpu time    0.00: real time    0.00
    --------------------------------------------
      LOOP:  cpu time  216.34: real time  217.95

 eigenvalue-minimisations  :  8352
 total energy-change (2. order) :-0.4752340E+02  (-0.2312579E-05)
 number of electron      51.9999998 magnetization 
 augmentation part       18.0115301 magnetization 

 Free energy of the ion-electron system (eV)
  ---------------------------------------------------
  alpha Z        PSCENC =       182.00132639
  Ewald energy   TEWEN  =     -4165.33738531
  -Hartree energ DENC   =     -1425.67481632
  -exchange      EXHF   =       145.14036985
  -V(xc)+E(xc)   XCENC  =       177.05512566
  PAW double counting   =      7247.34597933    -7308.13781730
  entropy T*S    EENTRO =        -0.00000000
  eigenvalues    EBANDS =      -402.12916633
  atomic energy  EATOM  =      5502.21298119
  ---------------------------------------------------
  free energy    TOTEN  =       -47.52340284 eV

  energy without entropy =      -47.52340284  energy(sigma->0) =      -47.52340284


--------------------------------------------------------------------------------------------------------




----------------------------------------- Iteration    1(   2)  ---------------------------------------


    POTLOK:  cpu time    0.04: real time    0.04
    SETDIJ:  cpu time    0.08: real time    0.08
     EDDAV:  cpu time  187.94: real time  188.05
       DOS:  cpu time    0.00: real time    0.00
    CHARGE:  cpu time    0.01: real time    0.01
    MIXING:  cpu time    0.00: real time    0.00
    --------------------------------------------
      LOOP:  cpu time  188.07: real time  188.19

 eigenvalue-minimisations  :  7464
 total energy-change (2. order) : 0.4030711E-06  (-0.7398390E-08)
 number of electron      51.9999998 magnetization 
 augmentation part       18.0115426 magnetization 

 Free energy of the ion-electron system (eV)
  ---------------------------------------------------
  alpha Z        PSCENC =       182.00132639
  Ewald energy   TEWEN  =     -4165.33738531
  -Hartree energ DENC   =     -1425.67012710
  -exchange      EXHF   =       145.14000866
  -V(xc)+E(xc)   XCENC  =       177.05495950
  PAW double counting   =      7248.54151298    -7309.33154151
  entropy T*S    EENTRO =        -0.00000000
  eigenvalues    EBANDS =      -402.13513724
  atomic energy  EATOM  =      5502.21298119
  ---------------------------------------------------
  free energy    TOTEN  =       -47.52340244 eV

  energy without entropy =      -47.52340244  energy(sigma->0) =      -47.52340244


--------------------------------------------------------------------------------------------------------




----------------------------------------- Iteration    1(   3)  ---------------------------------------


    POTLOK:  cpu time    0.04: real time    0.04
    SETDIJ:  cpu time    0.08: real time    0.08
     EDDAV:  cpu time  167.11: real time  167.22
       DOS:  cpu time    0.00: real time    0.00
    CHARGE:  cpu time    0.01: real time    0.01
    MIXING:  cpu time    0.00: real time    0.00
    --------------------------------------------
      LOOP:  cpu time  167.24: real time  167.36

 eigenvalue-minimisations  :  5664
 total energy-change (2. order) : 0.7023397E-07  (-0.2016896E-08)
 number of electron      51.9999998 magnetization 
 augmentation part       18.0115544 magnetization 

 Free energy of the ion-electron system (eV)
  ---------------------------------------------------
  alpha Z        PSCENC =       182.00132639
  Ewald energy   TEWEN  =     -4165.33738531
  -Hartree energ DENC   =     -1425.66772407
  -exchange      EXHF   =       145.14000531
  -V(xc)+E(xc)   XCENC  =       177.05486693
  PAW double counting   =      7249.25148365    -7310.04068447
  entropy T*S    EENTRO =        -0.00000000
  eigenvalues    EBANDS =      -402.13827197
  atomic energy  EATOM  =      5502.21298119
  ---------------------------------------------------
  free energy    TOTEN  =       -47.52340237 eV

  energy without entropy =      -47.52340237  energy(sigma->0) =      -47.52340237


--------------------------------------------------------------------------------------------------------




----------------------------------------- Iteration    1(   4)  ---------------------------------------


    POTLOK:  cpu time    0.04: real time    0.04
    SETDIJ:  cpu time    0.08: real time    0.08
     EDDAV:  cpu time  166.87: real time  166.97
       DOS:  cpu time    0.00: real time    0.00
    CHARGE:  cpu time    0.01: real time    0.01
    MIXING:  cpu time    0.00: real time    0.00
    --------------------------------------------
      LOOP:  cpu time  167.00: real time  167.11

 eigenvalue-minimisations  :  5016
 total energy-change (2. order) :-0.2314098E-06  (-0.5882332E-09)
 number of electron      51.9999998 magnetization 
 augmentation part       18.0115631 magnetization 

 Free energy of the ion-electron system (eV)
  ---------------------------------------------------
  alpha Z        PSCENC =       182.00132639
  Ewald energy   TEWEN  =     -4165.33738531
  -Hartree energ DENC   =     -1425.66672622
  -exchange      EXHF   =       145.14003860
  -V(xc)+E(xc)   XCENC  =       177.05482542
  PAW double counting   =      7249.66716320    -7310.45599360
  entropy T*S    EENTRO =        -0.00000000
  eigenvalues    EBANDS =      -402.13963227
  atomic energy  EATOM  =      5502.21298119
  ---------------------------------------------------
  free energy    TOTEN  =       -47.52340260 eV

  energy without entropy =      -47.52340260  energy(sigma->0) =      -47.52340260


--------------------------------------------------------------------------------------------------------




----------------------------------------- Iteration    1(   5)  ---------------------------------------


    POTLOK:  cpu time    0.04: real time    0.04
    SETDIJ:  cpu time    0.08: real time    0.08
     EDDAV:  cpu time  150.36: real time  150.45
       DOS:  cpu time    0.00: real time    0.00
    --------------------------------------------
      LOOP:  cpu time  150.59: real time  150.69

 eigenvalue-minimisations  :  4392
 total energy-change (2. order) :-0.2273890E-06  (-0.2443071E-09)
 number of electron      51.9999998 magnetization 
 augmentation part       18.0115631 magnetization 

 Free energy of the ion-electron system (eV)
  ---------------------------------------------------
  alpha Z        PSCENC =       182.00132639
  Ewald energy   TEWEN  =     -4165.33738531
  -Hartree energ DENC   =     -1425.66638883
  -exchange      EXHF   =       145.14006980
  -V(xc)+E(xc)   XCENC  =       177.05481096
  PAW double counting   =      7249.91135928    -7310.70000399
  entropy T*S    EENTRO =        -0.00000000
  eigenvalues    EBANDS =      -402.14017231
  atomic energy  EATOM  =      5502.21298119
  ---------------------------------------------------
  free energy    TOTEN  =       -47.52340283 eV

  energy without entropy =      -47.52340283  energy(sigma->0) =      -47.52340283


--------------------------------------------------------------------------------------------------------




 the core state eigenenergies are
   1-  1s -28994.5139  2s  -4365.8913  2p  -3917.5086  3s   -832.3889  3p   -685.9341
       3d   -460.6073  4s   -121.7425  4p    -77.5806
   2-  1s -28994.5609  2s  -4365.9406  2p  -3917.5577  3s   -832.4355  3p   -685.9808
       3d   -460.6544  4s   -121.7837  4p    -77.6209
   3-  1s   -498.3631
   4-  1s   -498.3631
   5-  1s   -498.2458
   6-  1s   -498.2458

 E-fermi :   4.8538     XC(G=0):  -9.1821     alpha+bet :-14.1652


 k-point     1 :       0.0000    0.0000    0.0625
  band No.  band energies     occupation 
      1     -17.7759      2.00000
      2     -16.9013      2.00000
      3     -16.6776      2.00000
      4     -16.6273      2.00000
      5     -16.5779      2.00000
      6     -16.5082      2.00000
      7     -16.4504      2.00000
      8     -16.3600      2.00000
      9     -16.3353      2.00000
     10     -16.3029      2.00000
     11     -15.6115      2.00000
     12     -13.7926      2.00000
     13     -13.7050      2.00000
     14     -11.8817      2.00000
     15      -3.6784      2.00000
     16       0.5151      2.00000
     17       0.5391      2.00000
     18       0.8422      2.00000
     19       1.3989      2.00000
     20       2.5710      2.00000
     21       2.9113      2.00000
     22       3.4613      2.00000
     23       3.5251      2.00000
     24       3.9444      2.00000
     25       4.0048      2.00000
     26       4.6472      2.00000
     27       7.8992      0.00000
     28      13.1123      0.00000
     29      13.1473      0.00000
     30      13.1714      0.00000
     31      16.6116      0.00000
     32      17.7792      0.00000
     33      18.9937      0.00000
     34      19.0050      0.00000
     35      19.3453      0.00000
     36      19.3759      0.00000
     37      22.4738      0.00000
     38      23.2111      0.00000
     39      25.4387      0.00000
     40      25.4467      0.00000
     41      26.2141      0.00000
     42      26.5278      0.00000
     43      27.4227      0.00000
     44      27.4358      0.00000
     45      27.9580      0.00000
     46      28.3002      0.00000
     47      28.3073      0.00000
     48      29.7225      0.00000

 k-point     2 :       0.2000    0.0000    0.0625
  band No.  band energies     occupation 
      1     -17.7126      2.00000
      2     -16.9959      2.00000
      3     -16.6866      2.00000
      4     -16.6471      2.00000
      5     -16.5710      2.00000
      6     -16.5231      2.00000
      7     -16.4439      2.00000
      8     -16.3675      2.00000
      9     -16.3385      2.00000
     10     -16.3061      2.00000
     11     -15.4863      2.00000
     12     -14.0049      2.00000
     13     -13.5008      2.00000
     14     -11.9861      2.00000
     15      -3.4002      2.00000
     16      -0.1318      2.00000
     17       0.5727      2.00000
     18       1.1408      2.00000
     19       1.6587      2.00000
     20       2.2659      2.00000
     21       3.0377      2.00000
     22       3.4786      2.00000
     23       3.4972      2.00000
     24       3.5947      2.00000
     25       3.9632      2.00000
     26       4.4652      2.00000
     27       8.7083      0.00000
     28      12.6794      0.00000
     29      13.3340      0.00000
     30      13.5713      0.00000
     31      17.0390      0.00000
     32      18.1588      0.00000
     33      18.5689      0.00000
     34      18.9018      0.00000
     35      19.3229      0.00000
     36      19.3537      0.00000
     37      21.7958      0.00000
     38      23.4146      0.00000
     39      23.5424      0.00000
     40      25.4495      0.00000
     41      25.4631      0.00000
     42      27.1328      0.00000
     43      27.2445      0.00000
     44      27.4064      0.00000
     45      27.6033      0.00000
     46      28.1291      0.00000
     47      28.8450      0.00000
     48      30.5735      0.00000

 k-point     3 :       0.4000    0.0000    0.0625
  band No.  band energies     occupation 
      1     -17.5274      2.00000
      2     -17.2543      2.00000
      3     -16.6890      2.00000
      4     -16.6610      2.00000
      5     -16.5571      2.00000
      6     -16.5329      2.00000
      7     -16.4240      2.00000
      8     -16.3837      2.00000
      9     -16.3408      2.00000
     10     -16.3098      2.00000
     11     -15.1119      2.00000
     12     -14.5572      2.00000
     13     -12.9418      2.00000
     14     -12.3577      2.00000
     15      -2.5890      2.00000
     16      -1.3962      2.00000
     17       0.9273      2.00000
     18       1.5652      2.00000
     19       1.7451      2.00000
     20       2.3590      2.00000
     21       2.5057      2.00000
     22       3.0432      2.00000
     23       3.5912      2.00000
     24       3.6800      2.00000
     25       3.9990      2.00000
     26       4.1323      2.00000
     27      10.2690      0.00000
     28      11.7500      0.00000
     29      13.7984      0.00000
     30      13.9658      0.00000
     31      17.5240      0.00000
     32      17.7927      0.00000
     33      18.9263      0.00000
     34      19.0783      0.00000
     35      19.2055      0.00000
     36      19.7995      0.00000
     37      20.4351      0.00000
     38      21.2900      0.00000
     39      24.0791      0.00000
     40      25.0229      0.00000
     41      25.1857      0.00000
     42      26.3402      0.00000
     43      27.3150      0.00000
     44      27.5247      0.00000
     45      27.8119      0.00000
     46      28.3122      0.00000
     47      28.3612      0.00000
     48      29.9930      0.00000

 k-point     4 :       0.2000    0.2000    0.0625
  band No.  band energies     occupation 
      1     -17.6639      2.00000
      2     -17.1033      2.00000
      3     -16.6950      2.00000
      4     -16.6292      2.00000
      5     -16.5741      2.00000
      6     -16.5322      2.00000
      7     -16.4345      2.00000
      8     -16.3698      2.00000
      9     -16.3373      2.00000
     10     -16.3094      2.00000
     11     -15.3472      2.00000
     12     -13.7692      2.00000
     13     -13.7454      2.00000
     14     -12.1306      2.00000
     15      -3.0988      2.00000
     16      -0.2662      2.00000
     17       0.5587      2.00000
     18       1.1955      2.00000
     19       1.8232      2.00000
     20       2.0424      2.00000
     21       2.9991      2.00000
     22       3.2470      2.00000
     23       3.4815      2.00000
     24       3.6110      2.00000
     25       3.8771      2.00000
     26       4.3553      2.00000
     27       9.3079      0.00000
     28      12.4361      0.00000
     29      13.6859      0.00000
     30      13.6876      0.00000
     31      17.1176      0.00000
     32      18.3729      0.00000
     33      18.4998      0.00000
     34      18.8553      0.00000
     35      19.2007      0.00000
     36      19.5481      0.00000
     37      21.2637      0.00000
     38      23.4850      0.00000
     39      23.5517      0.00000
     40      24.3297      0.00000
     41      25.1414      0.00000
     42      26.1065      0.00000
     43      26.1310      0.00000
     44      27.3869      0.00000
     45      28.7824      0.00000
     46      29.4428      0.00000
     47      30.0182      0.00000
     48      30.1109      0.00000

 k-point     5 :       0.4000    0.2000    0.0625
  band No.  band energies     occupation 
      1     -17.5269      2.00000
      2     -17.3285      2.00000
      3     -16.6902      2.00000
      4     -16.6405      2.00000
      5     -16.5674      2.00000
      6     -16.5349      2.00000
      7     -16.4192      2.00000
      8     -16.3823      2.00000
      9     -16.3389      2.00000
     10     -16.3100      2.00000
     11     -14.9376      2.00000
     12     -14.3311      2.00000
     13     -13.1878      2.00000
     14     -12.5726      2.00000
     15      -2.2691      2.00000
     16      -1.1551      2.00000
     17       0.8693      2.00000
     18       1.4719      2.00000
     19       1.6878      2.00000
     20       2.3293      2.00000
     21       2.3742      2.00000
     22       2.9339      2.00000
     23       3.5497      2.00000
     24       3.6233      2.00000
     25       3.8831      2.00000
     26       4.0848      2.00000
     27      10.5819      0.00000
     28      11.7767      0.00000
     29      13.9921      0.00000
     30      14.0856      0.00000
     31      17.3657      0.00000
     32      17.8642      0.00000
     33      18.8337      0.00000
     34      19.0268      0.00000
     35      19.1588      0.00000
     36      20.1675      0.00000
     37      20.3334      0.00000
     38      21.6276      0.00000
     39      23.9729      0.00000
     40      24.3883      0.00000
     41      25.0433      0.00000
     42      25.7987      0.00000
     43      25.8063      0.00000
     44      26.7171      0.00000
     45      28.4555      0.00000
     46      29.7395      0.00000
     47      29.9450      0.00000
     48      30.2872      0.00000

 k-point     6 :       0.4000    0.4000    0.0625
  band No.  band energies     occupation 
      1     -17.5086      2.00000
      2     -17.4485      2.00000
      3     -16.6827      2.00000
      4     -16.6300      2.00000
      5     -16.5726      2.00000
      6     -16.5317      2.00000
      7     -16.4070      2.00000
      8     -16.3763      2.00000
      9     -16.3360      2.00000
     10     -16.3046      2.00000
     11     -14.4546      2.00000
     12     -13.8105      2.00000
     13     -13.7436      2.00000
     14     -13.1176      2.00000
     15      -1.4840      2.00000
     16      -0.8912      2.00000
     17       0.7087      2.00000
     18       1.1007      2.00000
     19       1.7706      2.00000
     20       2.0276      2.00000
     21       2.4499      2.00000
     22       2.6997      2.00000
     23       3.5461      2.00000
     24       3.6676      2.00000
     25       3.6922      2.00000
     26       3.9070      2.00000
     27      11.2165      0.00000
     28      11.6916      0.00000
     29      14.2574      0.00000
     30      14.2753      0.00000
     31      17.4969      0.00000
     32      17.8540      0.00000
     33      18.7465      0.00000
     34      19.0024      0.00000
     35      19.2548      0.00000
     36      19.5825      0.00000
     37      20.8057      0.00000
     38      21.2899      0.00000
     39      23.9022      0.00000
     40      24.0434      0.00000
     41      24.6453      0.00000
     42      25.0898      0.00000
     43      26.1385      0.00000
     44      27.2178      0.00000
     45      28.4871      0.00000
     46      29.2398      0.00000
     47      29.7657      0.00000
     48      30.0908      0.00000

 k-point     7 :       0.0000    0.0000    0.1875
  band No.  band energies     occupation 
      1     -17.6213      2.00000
      2     -16.9941      2.00000
      3     -16.9386      2.00000
      4     -16.7245      2.00000
      5     -16.5421      2.00000
      6     -16.5028      2.00000
      7     -16.4377      2.00000
      8     -16.3734      2.00000
      9     -16.3580      2.00000
     10     -16.3376      2.00000
     11     -15.4443      2.00000
     12     -13.2891      2.00000
     13     -13.2055      2.00000
     14     -12.1328      2.00000
     15      -3.6455      2.00000
     16       0.5768      2.00000
     17       0.8225      2.00000
     18       0.8478      2.00000
     19       1.0791      2.00000
     20       1.6188      2.00000
     21       2.4612      2.00000
     22       2.5255      2.00000
     23       2.5659      2.00000
     24       3.9136      2.00000
     25       3.9731      2.00000
     26       4.3795      2.00000
     27       9.4283      0.00000
     28      13.6779      0.00000
     29      14.3941      0.00000
     30      14.4235      0.00000
     31      15.7255      0.00000
     32      18.5686      0.00000
     33      18.8715      0.00000
     34      18.8811      0.00000
     35      18.8901      0.00000
     36      19.3095      0.00000
     37      21.6852      0.00000
     38      21.8895      0.00000
     39      23.3690      0.00000
     40      23.3764      0.00000
     41      26.4438      0.00000
     42      27.4950      0.00000
     43      27.5081      0.00000
     44      27.6730      0.00000
     45      27.6849      0.00000
     46      30.9555      0.00000
     47      31.0064      0.00000
     48      31.0120      0.00000

 k-point     8 :       0.2000    0.0000    0.1875
  band No.  band energies     occupation 
      1     -17.5814      2.00000
      2     -17.0839      2.00000
      3     -16.9442      2.00000
      4     -16.7400      2.00000
      5     -16.5282      2.00000
      6     -16.4913      2.00000
      7     -16.4358      2.00000
      8     -16.3738      2.00000
      9     -16.3680      2.00000
     10     -16.3394      2.00000
     11     -15.3129      2.00000
     12     -13.5895      2.00000
     13     -13.0658      2.00000
     14     -12.1079      2.00000
     15      -3.3554      2.00000
     16       0.0428      2.00000
     17       0.0928      2.00000
     18       0.7926      2.00000
     19       1.5297      2.00000
     20       1.7861      2.00000
     21       2.3493      2.00000
     22       2.6917      2.00000
     23       2.9567      2.00000
     24       3.8314      2.00000
     25       3.9004      2.00000
     26       4.3105      2.00000
     27       9.9226      0.00000
     28      13.3825      0.00000
     29      14.5313      0.00000
     30      14.6261      0.00000
     31      15.9981      0.00000
     32      18.2244      0.00000
     33      18.7903      0.00000
     34      18.9090      0.00000
     35      18.9691      0.00000
     36      19.2523      0.00000
     37      21.1102      0.00000
     38      21.9407      0.00000
     39      22.4078      0.00000
     40      24.4913      0.00000
     41      25.9937      0.00000
     42      26.7141      0.00000
     43      27.5454      0.00000
     44      27.9592      0.00000
     45      28.1532      0.00000
     46      30.2300      0.00000
     47      30.2827      0.00000
     48      30.7261      0.00000

 k-point     9 :       0.4000    0.0000    0.1875
  band No.  band energies     occupation 
      1     -17.4591      2.00000
      2     -17.2781      2.00000
      3     -16.8877      2.00000
      4     -16.8040      2.00000
      5     -16.5168      2.00000
      6     -16.4772      2.00000
      7     -16.4194      2.00000
      8     -16.3830      2.00000
      9     -16.3665      2.00000
     10     -16.3381      2.00000
     11     -14.8912      2.00000
     12     -14.2530      2.00000
     13     -12.6569      2.00000
     14     -12.2651      2.00000
     15      -2.5223      2.00000
     16      -1.3067      2.00000
     17      -0.0248      2.00000
     18       0.2814      2.00000
     19       1.7826      2.00000
     20       2.0972      2.00000
     21       2.7276      2.00000
     22       3.1504      2.00000
     23       3.1802      2.00000
     24       3.5837      2.00000
     25       3.8608      2.00000
     26       4.0373      2.00000
     27      11.1020      0.00000
     28      12.4455      0.00000
     29      14.9274      0.00000
     30      15.0039      0.00000
     31      16.3564      0.00000
     32      17.0444      0.00000
     33      19.0895      0.00000
     34      19.1885      0.00000
     35      19.2708      0.00000
     36      19.3737      0.00000
     37      20.1572      0.00000
     38      20.6528      0.00000
     39      22.8922      0.00000
     40      24.4093      0.00000
     41      25.9586      0.00000
     42      26.3128      0.00000
     43      28.0441      0.00000
     44      28.2125      0.00000
     45      28.2639      0.00000
     46      29.2537      0.00000
     47      29.8634      0.00000
     48      30.0131      0.00000

 k-point    10 :       0.2000    0.2000    0.1875
  band No.  band energies     occupation 
      1     -17.5434      2.00000
      2     -17.1475      2.00000
      3     -16.9446      2.00000
      4     -16.7766      2.00000
      5     -16.5325      2.00000
      6     -16.4752      2.00000
      7     -16.4286      2.00000
      8     -16.3784      2.00000
      9     -16.3671      2.00000
     10     -16.3404      2.00000
     11     -15.1595      2.00000
     12     -13.5146      2.00000
     13     -13.2421      2.00000
     14     -12.1627      2.00000
     15      -3.0739      2.00000
     16      -0.7103      2.00000
     17       0.6374      2.00000
     18       0.8940      2.00000
     19       1.2951      2.00000
     20       1.6539      2.00000
     21       2.2953      2.00000
     22       2.7467      2.00000
     23       3.2671      2.00000
     24       3.7353      2.00000
     25       3.8394      2.00000
     26       4.3014      2.00000
     27      10.2968      0.00000
     28      13.0863      0.00000
     29      14.7218      0.00000
     30      14.8015      0.00000
     31      16.0197      0.00000
     32      18.3841      0.00000
     33      18.4053      0.00000
     34      19.0073      0.00000
     35      19.1237      0.00000
     36      19.2678      0.00000
     37      20.4744      0.00000
     38      22.0690      0.00000
     39      22.8510      0.00000
     40      23.9131      0.00000
     41      25.6506      0.00000
     42      26.8335      0.00000
     43      26.8956      0.00000
     44      27.8574      0.00000
     45      28.0773      0.00000
     46      29.9562      0.00000
     47      30.2658      0.00000
     48      31.2738      0.00000

 k-point    11 :       0.4000    0.2000    0.1875
  band No.  band energies     occupation 
      1     -17.4358      2.00000
      2     -17.2936      2.00000
      3     -16.9137      2.00000
      4     -16.8616      2.00000
      5     -16.5246      2.00000
      6     -16.4763      2.00000
      7     -16.4162      2.00000
      8     -16.3848      2.00000
      9     -16.3695      2.00000
     10     -16.3412      2.00000
     11     -14.7026      2.00000
     12     -14.0494      2.00000
     13     -12.8862      2.00000
     14     -12.4414      2.00000
     15      -2.3310      2.00000
     16      -1.4436      2.00000
     17       0.3643      2.00000
     18       0.4422      2.00000
     19       1.6187      2.00000
     20       1.8610      2.00000
     21       2.4621      2.00000
     22       3.1376      2.00000
     23       3.2748      2.00000
     24       3.4865      2.00000
     25       3.8394      2.00000
     26       4.1173      2.00000
     27      11.2408      0.00000
     28      12.3102      0.00000
     29      15.0368      0.00000
     30      15.0822      0.00000
     31      16.3359      0.00000
     32      17.2854      0.00000
     33      18.7436      0.00000
     34      19.0952      0.00000
     35      19.1625      0.00000
     36      19.5845      0.00000
     37      20.2309      0.00000
     38      21.5152      0.00000
     39      22.8110      0.00000
     40      23.9704      0.00000
     41      25.3789      0.00000
     42      26.0813      0.00000
     43      26.9209      0.00000
     44      27.2494      0.00000
     45      28.5946      0.00000
     46      29.2550      0.00000
     47      30.5943      0.00000
     48      31.4206      0.00000

 k-point    12 :       0.4000    0.4000    0.1875
  band No.  band energies     occupation 
      1     -17.3726      2.00000
      2     -17.3312      2.00000
      3     -16.9546      2.00000
      4     -16.9480      2.00000
      5     -16.5233      2.00000
      6     -16.4773      2.00000
      7     -16.4033      2.00000
      8     -16.3788      2.00000
      9     -16.3686      2.00000
     10     -16.3402      2.00000
     11     -14.2010      2.00000
     12     -13.7004      2.00000
     13     -13.2996      2.00000
     14     -12.9029      2.00000
     15      -1.9294      2.00000
     16      -1.6367      2.00000
     17       0.7029      2.00000
     18       0.9784      2.00000
     19       1.4826      2.00000
     20       1.6386      2.00000
     21       2.0478      2.00000
     22       2.6638      2.00000
     23       3.4569      2.00000
     24       3.6939      2.00000
     25       3.8003      2.00000
     26       4.0545      2.00000
     27      11.5715      0.00000
     28      11.9821      0.00000
     29      15.1422      0.00000
     30      15.1456      0.00000
     31      16.8047      0.00000
     32      17.6608      0.00000
     33      18.0353      0.00000
     34      18.7511      0.00000
     35      19.1401      0.00000
     36      19.2047      0.00000
     37      21.6075      0.00000
     38      22.5959      0.00000
     39      22.7837      0.00000
     40      23.1377      0.00000
     41      24.2083      0.00000
     42      24.6225      0.00000
     43      27.0652      0.00000
     44      27.3532      0.00000
     45      28.7466      0.00000
     46      29.1956      0.00000
     47      30.4212      0.00000
     48      30.8603      0.00000

 k-point    13 :       0.0000    0.0000    0.3125
  band No.  band energies     occupation 
      1     -17.3666      2.00000
      2     -17.3425      2.00000
      3     -17.2838      2.00000
      4     -16.7042      2.00000
      5     -16.4418      2.00000
      6     -16.4190      2.00000
      7     -16.4140      2.00000
      8     -16.3979      2.00000
      9     -16.3748      2.00000
     10     -16.3589      2.00000
     11     -15.0111      2.00000
     12     -12.6603      2.00000
     13     -12.6564      2.00000
     14     -12.5796      2.00000
     15      -3.4805      2.00000
     16      -0.6190      2.00000
     17       0.4435      2.00000
     18       1.0465      2.00000
     19       1.1101      2.00000
     20       1.6331      2.00000
     21       1.6625      2.00000
     22       1.9314      2.00000
     23       2.0383      2.00000
     24       3.6959      2.00000
     25       3.7610      2.00000
     26       3.8900      2.00000
     27      11.1219      0.00000
     28      13.8954      0.00000
     29      15.4141      0.00000
     30      16.0471      0.00000
     31      16.0794      0.00000
     32      18.0384      0.00000
     33      18.5674      0.00000
     34      18.5829      0.00000
     35      19.2502      0.00000
     36      19.3126      0.00000
     37      20.4396      0.00000
     38      21.5056      0.00000
     39      22.0756      0.00000
     40      22.0821      0.00000
     41      25.8944      0.00000
     42      27.7337      0.00000
     43      27.7387      0.00000
     44      28.5629      0.00000
     45      28.6671      0.00000
     46      31.3902      0.00000
     47      31.3977      0.00000
     48      31.5888      0.00000

 k-point    14 :       0.2000    0.0000    0.3125
  band No.  band energies     occupation 
      1     -17.5056      2.00000
      2     -17.3973      2.00000
      3     -17.1127      2.00000
      4     -16.6509      2.00000
      5     -16.4478      2.00000
      6     -16.4295      2.00000
      7     -16.4148      2.00000
      8     -16.3927      2.00000
      9     -16.3742      2.00000
     10     -16.3669      2.00000
     11     -14.9381      2.00000
     12     -13.2982      2.00000
     13     -12.5040      2.00000
     14     -12.2053      2.00000
     15      -3.2196      2.00000
     16      -0.8447      2.00000
     17      -0.2060      2.00000
     18       0.3876      2.00000
     19       1.1431      2.00000
     20       1.1964      2.00000
     21       2.1681      2.00000
     22       2.5242      2.00000
     23       2.6563      2.00000
     24       3.6565      2.00000
     25       3.8079      2.00000
     26       3.9620      2.00000
     27      11.3833      0.00000
     28      13.7591      0.00000
     29      15.3860      0.00000
     30      15.8577      0.00000
     31      16.1600      0.00000
     32      17.6551      0.00000
     33      18.6596      0.00000
     34      18.7986      0.00000
     35      19.1487      0.00000
     36      19.3288      0.00000
     37      20.4056      0.00000
     38      20.7066      0.00000
     39      21.6604      0.00000
     40      23.5696      0.00000
     41      25.5245      0.00000
     42      27.2282      0.00000
     43      28.1271      0.00000
     44      28.5517      0.00000
     45      29.4138      0.00000
     46      29.9355      0.00000
     47      30.8032      0.00000
     48      30.8552      0.00000

 k-point    15 :       0.4000    0.0000    0.3125
  band No.  band energies     occupation 
      1     -17.5714      2.00000
      2     -17.5093      2.00000
      3     -16.8640      2.00000
      4     -16.6784      2.00000
      5     -16.4541      2.00000
      6     -16.4360      2.00000
      7     -16.4079      2.00000
      8     -16.3792      2.00000
      9     -16.3702      2.00000
     10     -16.3640      2.00000
     11     -14.6167      2.00000
     12     -14.0162      2.00000
     13     -12.2578      2.00000
     14     -12.0913      2.00000
     15      -2.4836      2.00000
     16      -1.5059      2.00000
     17      -0.6790      2.00000
     18      -0.5635      2.00000
     19       1.0607      2.00000
     20       1.1195      2.00000
     21       2.9040      2.00000
     22       2.9655      2.00000
     23       3.4228      2.00000
     24       3.6159      2.00000
     25       3.7322      2.00000
     26       4.0150      2.00000
     27      12.1369      0.00000
     28      13.1267      0.00000
     29      15.3226      0.00000
     30      15.4354      0.00000
     31      16.4814      0.00000
     32      17.0484      0.00000
     33      19.0058      0.00000
     34      19.0125      0.00000
     35      19.2411      0.00000
     36      19.2457      0.00000
     37      19.6668      0.00000
     38      20.1691      0.00000
     39      22.1666      0.00000
     40      23.5952      0.00000
     41      26.3363      0.00000
     42      27.3569      0.00000
     43      28.5332      0.00000
     44      28.5592      0.00000
     45      28.6375      0.00000
     46      29.3184      0.00000
     47      29.3438      0.00000
     48      31.1676      0.00000

 k-point    16 :       0.2000    0.2000    0.3125
  band No.  band energies     occupation 
      1     -17.5728      2.00000
      2     -17.2909      2.00000
      3     -17.1740      2.00000
      4     -16.6413      2.00000
      5     -16.4563      2.00000
      6     -16.4284      2.00000
      7     -16.4062      2.00000
      8     -16.3931      2.00000
      9     -16.3732      2.00000
     10     -16.3656      2.00000
     11     -14.8327      2.00000
     12     -13.3788      2.00000
     13     -12.6115      2.00000
     14     -12.1228      2.00000
     15      -3.0482      2.00000
     16      -1.3082      2.00000
     17      -0.4581      2.00000
     18       0.8287      2.00000
     19       0.8440      2.00000
     20       1.4786      2.00000
     21       1.7523      2.00000
     22       2.7029      2.00000
     23       3.1242      2.00000
     24       3.6888      2.00000
     25       3.8558      2.00000
     26       3.9757      2.00000
     27      11.5003      0.00000
     28      13.4094      0.00000
     29      15.1913      0.00000
     30      16.1321      0.00000
     31      16.1875      0.00000
     32      17.8998      0.00000
     33      18.1217      0.00000
     34      18.9262      0.00000
     35      19.1938      0.00000
     36      19.6563      0.00000
     37      19.8800      0.00000
     38      20.9472      0.00000
     39      21.5604      0.00000
     40      24.2365      0.00000
     41      25.3133      0.00000
     42      26.5999      0.00000
     43      27.4234      0.00000
     44      28.5461      0.00000
     45      29.3006      0.00000
[...]
     41      25.9669      0.00000
     42      27.6932      0.00000
     43      27.6971      0.00000
     44      28.7373      0.00000
     45      28.8451      0.00000
     46      31.3573      0.00000
     47      31.3639      0.00000
     48      31.5447      0.00000

 k-point    70 :       0.0000    0.0000    0.3667
  band No.  band energies     occupation 
      1     -17.5544      2.00000
      2     -17.4950      2.00000
      3     -17.3454      2.00000
      4     -16.8605      2.00000
      5     -16.5328      2.00000
      6     -16.5128      2.00000
      7     -16.5006      2.00000
      8     -16.4882      2.00000
      9     -16.4654      2.00000
     10     -16.4314      2.00000
     11     -14.8240      2.00000
     12     -13.0636      2.00000
     13     -12.5365      2.00000
     14     -12.4565      2.00000
     15      -3.4197      2.00000
     16      -1.3792      2.00000
     17       0.3933      2.00000
     18       0.6690      2.00000
     19       0.7377      2.00000
     20       1.5201      2.00000
     21       1.6755      2.00000
     22       1.7050      2.00000
     23       2.1714      2.00000
     24       3.4541      2.00000
     25       3.5257      2.00000
     26       3.5297      2.00000
     27      11.7460      0.00000
     28      13.7407      0.00000
     29      15.5411      0.00000
     30      16.6878      0.00000
     31      16.7198      0.00000
     32      17.5869      0.00000
     33      18.3760      0.00000
     34      18.3950      0.00000
     35      19.2570      0.00000
     36      19.6546      0.00000
     37      20.0505      0.00000
     38      21.3417      0.00000
     39      21.7653      0.00000
     40      21.7705      0.00000
     41      26.2055      0.00000
     42      27.5999      0.00000
     43      27.6024      0.00000
     44      29.0227      0.00000
     45      29.0955      0.00000
     46      31.3860      0.00000
     47      31.3917      0.00000
     48      31.4541      0.00000

 k-point    71 :       0.0000    0.0000    0.4000
  band No.  band energies     occupation 
      1     -17.6062      2.00000
      2     -17.5465      2.00000
      3     -17.2717      2.00000
      4     -16.9038      2.00000
      5     -16.5404      2.00000
      6     -16.5080      2.00000
      7     -16.5057      2.00000
      8     -16.4677      2.00000
      9     -16.4650      2.00000
     10     -16.4090      2.00000
     11     -14.6227      2.00000
     12     -13.2718      2.00000
     13     -12.4281      2.00000
     14     -12.3484      2.00000
     15      -3.2830      2.00000
     16      -1.7504      2.00000
     17       0.4604      2.00000
     18       0.5023      2.00000
     19       0.5699      2.00000
     20       1.3299      2.00000
     21       1.8015      2.00000
     22       1.8378      2.00000
     23       2.3271      2.00000
     24       3.3587      2.00000
     25       3.3636      2.00000
     26       3.4398      2.00000
     27      12.0870      0.00000
     28      13.5855      0.00000
     29      15.6949      0.00000
     30      17.0293      0.00000
     31      17.0607      0.00000
     32      17.2933      0.00000
     33      18.2473      0.00000
     34      18.2682      0.00000
     35      19.2787      0.00000
     36      19.8557      0.00000
     37      19.8753      0.00000
     38      21.1928      0.00000
     39      21.6387      0.00000
     40      21.6430      0.00000
     41      26.5882      0.00000
     42      27.4894      0.00000
     43      27.4913      0.00000
     44      29.2555      0.00000
     45      29.3188      0.00000
     46      31.3370      0.00000
     47      31.3496      0.00000
     48      31.4037      0.00000

 k-point    72 :       0.0000    0.0000    0.4333
  band No.  band energies     occupation 
      1     -17.5437      2.00000
      2     -17.4837      2.00000
      3     -17.1001      2.00000
      4     -16.8529      2.00000
      5     -16.4460      2.00000
      6     -16.4125      2.00000
      7     -16.4020      2.00000
      8     -16.3675      2.00000
      9     -16.3482      2.00000
     10     -16.2936      2.00000
     11     -14.3073      2.00000
     12     -13.3909      2.00000
     13     -12.2472      2.00000
     14     -12.1678      2.00000
     15      -3.0138      2.00000
     16      -1.9909      2.00000
     17       0.4733      2.00000
     18       0.5408      2.00000
     19       0.6553      2.00000
     20       1.2461      2.00000
     21       2.0147      2.00000
     22       2.0593      2.00000
     23       2.5902      2.00000
     24       3.2875      2.00000
     25       3.3766      2.00000
     26       3.4620      2.00000
     27      12.3973      0.00000
     28      13.3960      0.00000
     29      15.8977      0.00000
     30      16.9946      0.00000
     31      17.3244      0.00000
     32      17.3546      0.00000
     33      18.1091      0.00000
     34      18.1319      0.00000
     35      19.3169      0.00000
     36      19.6930      0.00000
     37      20.1031      0.00000
     38      21.0078      0.00000
     39      21.5541      0.00000
     40      21.5577      0.00000
     41      27.0916      0.00000
     42      27.3868      0.00000
     43      27.3885      0.00000
     44      29.2138      0.00000
     45      29.6263      0.00000
     46      30.9833      0.00000
     47      31.0104      0.00000
     48      31.2102      0.00000

 k-point    73 :       0.0000    0.0000    0.4667
  band No.  band energies     occupation 
      1     -17.6668      2.00000
      2     -17.6066      2.00000
      3     -17.1320      2.00000
      4     -17.0077      2.00000
      5     -16.5496      2.00000
      6     -16.5160      2.00000
      7     -16.4993      2.00000
      8     -16.4687      2.00000
      9     -16.4365      2.00000
     10     -16.3853      2.00000
     11     -14.1836      2.00000
     12     -13.7170      2.00000
     13     -12.2977      2.00000
     14     -12.2183      2.00000
     15      -2.9108      2.00000
     16      -2.3989      2.00000
     17       0.2931      2.00000
     18       0.3601      2.00000
     19       0.6735      2.00000
     20       0.9729      2.00000
     21       1.9941      2.00000
     22       2.0464      2.00000
     23       2.6577      2.00000
     24       3.0133      2.00000
     25       3.2129      2.00000
     26       3.3054      2.00000
     27      12.6805      0.00000
     28      13.1798      0.00000
     29      16.1394      0.00000
     30      16.6974      0.00000
     31      17.5728      0.00000
     32      17.6017      0.00000
     33      17.9565      0.00000
     34      17.9810      0.00000
     35      19.3745      0.00000
     36      19.5601      0.00000
     37      20.3353      0.00000
     38      20.7963      0.00000
     39      21.5061      0.00000
     40      21.5091      0.00000
     41      27.3144      0.00000
     42      27.3165      0.00000
     43      27.6798      0.00000
     44      28.8626      0.00000
     45      29.9467      0.00000
     46      30.6264      0.00000
     47      30.8744      0.00000
     48      31.0679      0.00000

 k-point    74 :       0.0000    0.0000    0.5000
  band No.  band energies     occupation 
      1     -17.6744      2.00000
      2     -17.6143      2.00000
      3     -17.0710      2.00000
      4     -17.0641      2.00000
      5     -16.5508      2.00000
      6     -16.5171      2.00000
      7     -16.4983      2.00000
      8     -16.4691      2.00000
      9     -16.4323      2.00000
     10     -16.3827      2.00000
     11     -13.9860      2.00000
     12     -13.9154      2.00000
     13     -12.2809      2.00000
     14     -12.2016      2.00000
     15      -2.6759      2.00000
     16      -2.6689      2.00000
     17       0.2659      2.00000
     18       0.3328      2.00000
     19       0.8047      2.00000
     20       0.8233      2.00000
     21       2.0231      2.00000
     22       2.0787      2.00000
     23       2.8003      2.00000
     24       2.8686      2.00000
     25       3.1888      2.00000
     26       3.2844      2.00000
     27      12.9287      0.00000
     28      12.9528      0.00000
     29      16.4065      0.00000
     30      16.4121      0.00000
     31      17.7679      0.00000
     32      17.7921      0.00000
     33      17.8080      0.00000
     34      17.8086      0.00000
     35      19.4493      0.00000
     36      19.4602      0.00000
     37      20.5552      0.00000
     38      20.5825      0.00000
     39      21.4906      0.00000
     40      21.4934      0.00000
     41      27.2888      0.00000
     42      27.2907      0.00000
     43      28.2983      0.00000
     44      28.3006      0.00000
     45      30.2698      0.00000
     46      30.2910      0.00000
     47      30.9186      0.00000
     48      30.9526      0.00000


--------------------------------------------------------------------------------------------------------


 soft charge-density along one line, spin component           1
         0         1         2         3         4         5         6         7         8         9
 total charge-density along one line

 pseudopotential strength for first ion, spin component:           1
-13.269  -0.006  -0.044  -0.007   0.000   0.999   0.003   0.017
 -0.006 -13.248  -0.004  -0.027   0.007   0.003   0.988   0.002
 -0.044  -0.004 -13.258  -0.004  -0.002   0.017   0.002   0.991
 -0.007  -0.027  -0.004 -13.244  -0.007   0.003   0.009   0.002
  0.000   0.007  -0.002  -0.007 -13.307  -0.000  -0.003   0.001
  0.999   0.003   0.017   0.003  -0.000   5.354  -0.001  -0.002
  0.003   0.988   0.002   0.009  -0.003  -0.001   5.360  -0.001
  0.017   0.002   0.991   0.002   0.001  -0.002  -0.001   5.363
  0.003   0.009   0.002   0.986   0.003  -0.001   0.002  -0.001
 -0.000  -0.003   0.001   0.003   1.012   0.000   0.001  -0.000
  0.002  -0.001   0.005  -0.001   0.000  -0.002   0.001  -0.001
 -0.003   0.002  -0.010   0.002  -0.000   0.003  -0.002   0.003
 -0.000  -0.000   0.000   0.000   0.000   0.000  -0.000   0.000
  0.000  -0.000  -0.000  -0.000   0.000  -0.000  -0.000  -0.000
 -0.000   0.000   0.000  -0.000  -0.000  -0.000  -0.000  -0.000
 -0.000  -0.000   0.000   0.000   0.000   0.000  -0.000   0.000
  0.000  -0.000  -0.000  -0.000   0.000  -0.000  -0.000  -0.000
 -0.000   0.000   0.000  -0.000  -0.000  -0.000  -0.000  -0.000
 total augmentation occupancy for first ion, spin component:           1
  1.994  -0.000   0.000  -0.000  -0.000   0.006  -0.000  -0.011  -0.000  -0.000  -0.000   0.002  -0.000   0.000  -0.000   0.000
 -0.000   1.995   0.000  -0.000   0.000  -0.000   0.004  -0.000  -0.011   0.000  -0.001  -0.001  -0.000   0.000   0.000   0.000
  0.000   0.000   1.996   0.000   0.000  -0.011  -0.000   0.004  -0.000  -0.000   0.008   0.006   0.000  -0.000   0.000  -0.000
 -0.000  -0.000   0.000   1.995   0.000  -0.000  -0.011  -0.000   0.004  -0.000  -0.001  -0.001   0.000  -0.000  -0.000  -0.000
 -0.000   0.000   0.000   0.000   1.993  -0.000   0.000  -0.000  -0.000  -0.011   0.000   0.000   0.000   0.000  -0.000  -0.000
  0.006  -0.000  -0.011  -0.000  -0.000   0.212   0.000  -0.119   0.001   0.001   0.017   0.003   0.000  -0.000   0.000  -0.000
 -0.000   0.004  -0.000  -0.011   0.000   0.000   0.177  -0.003  -0.116   0.005  -0.007  -0.000   0.000  -0.000  -0.000  -0.000
 -0.011  -0.000   0.004  -0.000  -0.000  -0.119  -0.003   0.136  -0.004  -0.000   0.046   0.008  -0.000   0.000  -0.000   0.000
 -0.000  -0.011  -0.000   0.004  -0.000   0.001  -0.116  -0.004   0.183  -0.004  -0.006   0.000  -0.000   0.000   0.000   0.000
 -0.000   0.000  -0.000  -0.000  -0.011   0.001   0.005  -0.000  -0.004   0.059   0.000  -0.000  -0.000  -0.000   0.000   0.000
 -0.000  -0.001   0.008  -0.001   0.000   0.017  -0.007   0.046  -0.006   0.000   1.633   0.203  -0.000  -0.000  -0.000   0.000
  0.002  -0.001   0.006  -0.001   0.000   0.003  -0.000   0.008   0.000  -0.000   0.203   0.030  -0.000  -0.000  -0.000   0.000
 -0.000  -0.000   0.000   0.000   0.000   0.000   0.000  -0.000  -0.000  -0.000  -0.000  -0.000   4.926  -0.066   0.152  -1.849
  0.000   0.000  -0.000  -0.000   0.000  -0.000  -0.000   0.000   0.000  -0.000  -0.000  -0.000  -0.066   5.929  -0.063   0.012
 -0.000   0.000   0.000  -0.000  -0.000   0.000  -0.000  -0.000   0.000   0.000  -0.000  -0.000   0.152  -0.063   4.927  -0.084
  0.000   0.000  -0.000  -0.000  -0.000  -0.000  -0.000   0.000   0.000   0.000   0.000   0.000  -1.849   0.012  -0.084   0.707
 -0.000  -0.000   0.000   0.000  -0.000   0.000   0.000  -0.000  -0.000   0.000  -0.000   0.000   0.012  -2.264   0.014  -0.001
  0.000  -0.000  -0.000   0.000   0.000  -0.000   0.000   0.000  -0.000  -0.000   0.000   0.000  -0.084   0.014  -1.851   0.041


------------------------ aborting loop because EDIFF is reached ----------------------------------------





 total charge     

# of ion     s       p       d       tot
----------------------------------------
  1        0.861   1.086  10.402  12.348
  2        0.845   1.114  10.392  12.350
  3        1.562   3.545   0.000   5.107
  4        1.562   3.545   0.000   5.107
  5        1.564   3.547   0.000   5.111
  6        1.564   3.547   0.000   5.111
------------------------------------------------
tot        7.958  16.383  20.793  45.134

    CHARGE:  cpu time    0.01: real time    0.01
    FORLOC:  cpu time    0.00: real time    0.00
    FORHF :  cpu time  178.80: real time  178.91
    FORNL :  cpu time    0.05: real time    0.05
    STRESS:  cpu time    0.73: real time    0.73
    FORCOR:  cpu time    0.04: real time    0.04
    FORHAR:  cpu time    0.00: real time    0.00
    MIXING:  cpu time    0.00: real time    0.00
    OFIELD:  cpu time    0.00: real time    0.00

  FORCE on cell =-STRESS in cart. coord.  units (eV):
  Direction    XX          YY          ZZ          XY          YZ          ZX
  --------------------------------------------------------------------------------------
  Alpha Z   182.00133   182.00133   182.00133
  Ewald   -1608.62349 -1608.62349  -948.09289    -0.00000     0.00000     0.00000
  Hartree   351.62375   351.87395   722.16843    -1.18504    -0.11649    -0.24871
  E(xc)    -200.19385  -200.18781  -199.78104    -0.00119     0.01231     0.01663
  Local     208.90962   207.69802  -802.59994     2.44513     1.47616     2.24444
  n-local   263.28078   262.90130   272.89802    -0.22193     0.17554     0.23136
  augment   378.84245   378.91891   375.14720    -0.23730    -0.25340    -0.34966
  Kinetic   723.15301   724.68814   698.42303    -1.15966    -2.34331    -3.20934
  Fock     -308.70059  -296.02688  -302.88993    -1.35225    -2.62040    -5.27552
  -------------------------------------------------------------------------------------
  Total      -9.70699     3.24346    -2.72579    -1.71223    -3.66959    -6.59080
  in kB    -215.47839    71.99908   -60.50778   -38.00855   -81.45864  -146.30436
  external pressure =      -68.00 kB  Pullay stress =        0.00 kB


 VOLUME and BASIS-vectors are now :
 -----------------------------------------------------------------------------
  energy-cutoff  :      500.00
  volume of cell :       72.18
      direct lattice vectors                 reciprocal lattice vectors
     4.779999161  0.000000000  0.000000000     0.209205058  0.000000000  0.000000000
     0.000000000  4.779999161  0.000000000     0.000000000  0.209205058  0.000000000
     0.000000000  0.000000000  3.158900000     0.000000000  0.000000000  0.316565893

  length of vectors
     4.779999161  4.779999161  3.158900000     0.209205058  0.209205058  0.316565893


 FORCES acting on ions
    electron-ion (+dipol)            ewald-force                    non-local-force                 convergence-correction
 -----------------------------------------------------------------------------------------------
   0.101E-05 -.301E-06 0.998E-07   -.248E-07 -.248E-07 -.142E-06   -.203E-06 -.906E-07 0.568E-07   0.129E-05 0.829E-06 0.586E-06
   0.818E-06 0.590E-06 0.428E-06   0.116E-07 0.116E-07 0.142E-06   0.239E-05 0.602E-05 0.439E-05   -.463E-06 -.295E-06 -.474E-06
   0.396E+02 0.395E+02 0.526E+00   -.428E+02 -.428E+02 -.779E-07   0.287E+01 0.294E+01 -.308E+00   0.288E-05 0.286E-05 -.350E-05
   -.396E+02 -.395E+02 -.526E+00   0.428E+02 0.428E+02 -.779E-07   -.287E+01 -.294E+01 0.308E+00   -.301E-05 -.283E-05 0.343E-05
   -.399E+02 0.397E+02 0.156E+00   0.428E+02 -.428E+02 0.779E-07   -.254E+01 0.263E+01 -.118E+00   -.249E-05 0.372E-05 0.378E-06
   0.399E+02 -.397E+02 -.156E+00   -.428E+02 0.428E+02 0.779E-07   0.254E+01 -.263E+01 0.118E+00   0.270E-05 -.377E-05 -.383E-06
 -----------------------------------------------------------------------------------------------
   0.167E-05 0.154E-06 0.556E-06   0.000E+00 0.711E-14 -.730E-14   0.212E-05 0.599E-05 0.447E-05   0.900E-06 0.513E-06 0.452E-07


 POSITION                                       TOTAL-FORCE (eV/Angst)
 -----------------------------------------------------------------------------------
      0.00000      0.00000      0.00000        -0.000001     -0.000001     -0.000001
      2.39000      2.39000      1.57945         0.000003      0.000006      0.000004
      1.46003      1.46003      0.00000         0.134891      0.082077      0.173303
      3.31997      3.31997      0.00000        -0.134892     -0.082079     -0.173304
      0.92997      3.85003      1.57945        -0.005407     -0.050370      0.026103
      3.85003      0.92997      1.57945         0.005406      0.050368     -0.026105
 -----------------------------------------------------------------------------------
    total drift:                                0.000002      0.000006      0.000004


--------------------------------------------------------------------------------------------------------



  FREE ENERGIE OF THE ION-ELECTRON SYSTEM (eV)
  ---------------------------------------------------
  free  energy   TOTEN  =       -47.52340283 eV

  energy  without entropy=      -47.52340283  energy(sigma->0) =      -47.52340283



--------------------------------------------------------------------------------------------------------


    POTLOK:  cpu time    0.12: real time    0.12


--------------------------------------------------------------------------------------------------------


 writing wavefunctions
     LOOP+:  cpu time 1070.41: real time 1138.58
    4ORBIT:  cpu time    0.00: real time    0.00



 total charge     

# of ion     s       p       d       tot
----------------------------------------
  1        0.861   1.086  10.402  12.348
  2        0.845   1.114  10.392  12.350
  3        1.562   3.545   0.000   5.107
  4        1.562   3.545   0.000   5.107
  5        1.564   3.547   0.000   5.111
  6        1.564   3.547   0.000   5.111
------------------------------------------------
tot        7.958  16.383  20.793  45.134


 total amount of memory used by VASP on root node    80539. kBytes
========================================================================

   base      :      30000. kBytes
   nonl-proj :      40075. kBytes
   fftplans  :        499. kBytes
   grid      :       1862. kBytes
   one-center:         93. kBytes
   HF        :        129. kBytes
   nonlr-proj:       3278. kBytes
   wavefun   :       4603. kBytes

  
  
 General timing and accounting informations for this job:
 ========================================================
  
                  Total CPU time used (sec):     1094.596
                            User time (sec):     1093.192
                          System time (sec):        1.404
                         Elapsed time (sec):     1167.917
  
                   Maximum memory used (kb):      187216.
                   Average memory used (kb):           0.
  
                          Minor page faults:        60253
                          Major page faults:            0
                 Voluntary context switches:        10137
