 vasp.5.4.1 24Jun15 (build Sep 15 2015 10:29:54) complex                        
  
 executed on           IFC91_ompi date 2017.08.21  15:03:22
 running on   24 total cores
 distrk:  each k-point on    6 cores,    4 groups
 distr:  one band on NCORES_PER_BAND=   1 cores,    6 groups


--------------------------------------------------------------------------------------------------------


 INCAR:
 POTCAR:    PAW_PBE Zn 06Sep2000                  
 POTCAR:    PAW_PBE S 06Sep2000                   

 ----------------------------------------------------------------------------- 
|                                                                             |
|           W    W    AA    RRRRR   N    N  II  N    N   GGGG   !!!           |
|           W    W   A  A   R    R  NN   N  II  NN   N  G    G  !!!           |
|           W    W  A    A  R    R  N N  N  II  N N  N  G       !!!           |
|           W WW W  AAAAAA  RRRRR   N  N N  II  N  N N  G  GGG   !            |
|           WW  WW  A    A  R   R   N   NN  II  N   NN  G    G                |
|           W    W  A    A  R    R  N    N  II  N    N   GGGG   !!!           |
|                                                                             |
|      For optimal performance we recommend to set                            |
|        NCORE= 4 - approx SQRT( number of cores)                             |
|      NCORE specifies how many cores store one orbital (NPAR=cpu/NCORE).     |
|      This setting can  greatly improve the performance of VASP for DFT.     |
|      The default, NPAR=number of cores might be grossly inefficient         |
|      on modern multi-core architectures or massively parallel machines.     |
|      Do your own testing !!!!                                               |
|      Unfortunately you need to use the default for GW and RPA calculations. |
|      (for HF NCORE is supported but not extensively tested yet)             |
|                                                                             |
 ----------------------------------------------------------------------------- 


 ----------------------------------------------------------------------------- 
|                                                                             |
|           W    W    AA    RRRRR   N    N  II  N    N   GGGG   !!!           |
|           W    W   A  A   R    R  NN   N  II  NN   N  G    G  !!!           |
|           W    W  A    A  R    R  N N  N  II  N N  N  G       !!!           |
|           W WW W  AAAAAA  RRRRR   N  N N  II  N  N N  G  GGG   !            |
|           WW  WW  A    A  R   R   N   NN  II  N   NN  G    G                |
|           W    W  A    A  R    R  N    N  II  N    N   GGGG   !!!           |
|                                                                             |
|      You have enabled k-point parallelism (KPAR>1).                         |
|      This developmental code was originally  written by Paul Kent at ORNL,  |
|      and carefully double checked in Vienna.                                |
|      GW as well as linear response parallelism added by Martijn Marsman     |
|      and Georg Kresse.                                                      |
|      Carefully verify results versus KPAR=1.                                |
|      Report problems to Paul Kent and Vienna.                               |
|                                                                             |
 ----------------------------------------------------------------------------- 

 POTCAR:    PAW_PBE Zn 06Sep2000                  
   VRHFIN =Zn: d10 p2                                                           
   LEXCH  = PE                                                                  
   EATOM  =  1748.8345 eV,  128.5357 Ry                                         
                                                                                
   TITEL  = PAW_PBE Zn 06Sep2000                                                
   LULTRA =        F    use ultrasoft PP ?                                      
   IUNSCR =        1    unscreen: 0-lin 1-nonlin 2-no                           
   RPACOR =    2.000    partial core radius                                     
   POMASS =   65.390; ZVAL   =   12.000    mass and valenz                      
   RCORE  =    2.300    outmost cutoff radius                                   
   RWIGS  =    2.400; RWIGS  =    1.270    wigner-seitz radius (au A)           
   ENMAX  =  276.723; ENMIN  =  207.542 eV                                      
   RCLOC  =    1.828    cutoff for local pot                                    
   LCOR   =        T    correct aug charges                                     
   LPAW   =        T    paw PP                                                  
   EAUG   =  575.892                                                            
   DEXC   =    0.000                                                            
   RMAX   =    2.347    core radius for proj-oper                               
   RAUG   =    1.300    factor for augmentation sphere                          
   RDEP   =    2.324    radius for radial grids                                 
   RDEPT  =    1.788    core radius for aug-charge                              
                                                                                
   Atomic configuration                                                         
    9 entries                                                                   
     n  l   j            E        occ.                                          
     1  0  0.50     -9524.6913   2.0000                                         
     2  0  0.50     -1158.1882   2.0000                                         
     2  1  1.50     -1003.8506   6.0000                                         
     3  0  0.50      -129.2194   2.0000                                         
     3  1  1.50       -83.3890   6.0000                                         
     3  2  2.50       -10.1410  10.0000                                         
     4  0  0.50        -5.9785   2.0000                                         
     4  1  0.50        -4.0817   0.0000                                         
     4  3  2.50        -1.3606   0.0000                                         
   Description                                                                  
     l       E           TYP  RCUT    TYP  RCUT                                 
     2    -10.1410010     23  2.300                                             
     2    -11.5015836     23  2.300                                             
     0     -5.9785163     23  2.300                                             
     0      1.1858015     23  2.300                                             
     1     -2.7211652     23  2.300                                             
     1     13.2444212     23  2.300                                             
  local pseudopotential read in
  partial core-charges read in
  partial kinetic energy density read in
  atomic valenz-charges read in
  non local Contribution for L=           2  read in
    real space projection operators read in
  non local Contribution for L=           2  read in
    real space projection operators read in
  non local Contribution for L=           0  read in
    real space projection operators read in
  non local Contribution for L=           0  read in
    real space projection operators read in
  non local Contribution for L=           1  read in
    real space projection operators read in
  non local Contribution for L=           1  read in
    real space projection operators read in
    PAW grid and wavefunctions read in
 
   number of l-projection  operators is LMAX  =           6
   number of lm-projection operators is LMMAX =          18
 
 POTCAR:    PAW_PBE S 06Sep2000                   
   VRHFIN =S : s2p4                                                             
   LEXCH  = PE                                                                  
   EATOM  =   276.8230 eV,   20.3459 Ry                                         
                                                                                
   TITEL  = PAW_PBE S 06Sep2000                                                 
   LULTRA =        F    use ultrasoft PP ?                                      
   IUNSCR =        1    unscreen: 0-lin 1-nonlin 2-no                           
   RPACOR =    1.500    partial core radius                                     
   POMASS =   32.066; ZVAL   =    6.000    mass and valenz                      
   RCORE  =    1.900    outmost cutoff radius                                   
   RWIGS  =    2.200; RWIGS  =    1.164    wigner-seitz radius (au A)           
   ENMAX  =  258.689; ENMIN  =  194.016 eV                                      
   ICORE  =        2    local potential                                         
   LCOR   =        T    correct aug charges                                     
   LPAW   =        T    paw PP                                                  
   EAUG   =  335.092                                                            
   DEXC   =    0.000                                                            
   RMAX   =    1.942    core radius for proj-oper                               
   RAUG   =    1.300    factor for augmentation sphere                          
   RDEP   =    1.954    radius for radial grids                                 
   RDEPT  =    1.744    core radius for aug-charge                              
                                                                                
   Atomic configuration                                                         
    6 entries                                                                   
     n  l   j            E        occ.                                          
     1  0  0.50     -2405.8406   2.0000                                         
     2  0  0.50      -211.7007   2.0000                                         
     2  1  1.50      -156.4958   6.0000                                         
     3  0  0.50       -17.2562   2.0000                                         
     3  1  0.50        -7.0085   4.0000                                         
     3  2  1.50        -6.8029   0.0000                                         
   Description                                                                  
     l       E           TYP  RCUT    TYP  RCUT                                 
     0    -17.2561641     23  1.900                                             
     0    -15.8743224     23  1.900                                             
     1     -7.0085400     23  1.900                                             
     1     -2.7779785     23  1.900                                             
     2     -6.8029130     23  1.900                                             
  local pseudopotential read in
  partial core-charges read in
  partial kinetic energy density read in
  atomic valenz-charges read in
  non local Contribution for L=           0  read in
    real space projection operators read in
  non local Contribution for L=           0  read in
    real space projection operators read in
  non local Contribution for L=           1  read in
    real space projection operators read in
  non local Contribution for L=           1  read in
    real space projection operators read in
    PAW grid and wavefunctions read in
 
   number of l-projection  operators is LMAX  =           4
   number of lm-projection operators is LMMAX =           8
 

 ----------------------------------------------------------------------------- 
|                                                                             |
|  ADVICE TO THIS USER RUNNING 'VASP/VAMP'   (HEAR YOUR MASTER'S VOICE ...):  |
|                                                                             |
|      You enforced a specific xc-type in the INCAR file,                     |
|      a different type was found on the POTCAR file                          |
|          I HOPE YOU KNOW, WHAT YOU ARE  DOING                               |
|                                                                             |
 ----------------------------------------------------------------------------- 

  PAW_PBE Zn 06Sep2000                  :
 energy of atom  1       EATOM=-1748.8345
 kinetic energy error for atom=    0.0029 (will be added to EATOM!!)
  PAW_PBE S 06Sep2000                   :
 energy of atom  2       EATOM= -276.8230
 kinetic energy error for atom=    0.0020 (will be added to EATOM!!)
 
 
 POSCAR: Zn S                                    
  positions in direct lattice
  velocities in cartesian coordinates
 exchange correlation table for  LEXCH =       14
   RHO(1)=    0.500       N(1)  =     2000
   RHO(2)=  100.500       N(2)  =     4000
 


--------------------------------------------------------------------------------------------------------


 ion  position               nearest neighbor table
   1  0.000  0.000  0.000-   3 2.15   4 2.15   4 2.15   3 2.15
   2  0.500  0.500  0.500-   3 2.15   4 2.15   3 2.15   4 2.15
   3  0.250  0.500  0.000-   1 2.15   2 2.15   2 2.15   1 2.15
   4  0.750  0.000  0.500-   1 2.15   2 2.15   1 2.15   2 2.15
 
  LATTYP: Found a simple tetragonal cell.
 ALAT       =     3.5065124364
 C/A-ratio  =     1.4158315706
  
  Lattice vectors:
  
 A1 = (   0.0000000000,   3.5065124364,   0.0000000000)
 A2 = (   0.0000000000,   0.0000000000,  -3.5065124364)
 A3 = (  -4.9646310102,   0.0000000000,   0.0000000000)


Analysis of symmetry for initial positions (statically):
=====================================================================
 Subroutine PRICEL returns following result:
 
  LATTYP: Found a body centered tetragonal cell.
 ALAT       =     3.5065124364
 C/A-ratio  =     1.4158315706
  
  Lattice vectors:
  
 A1 = (   2.4823155051,   1.7532562182,  -1.7532562182)
 A2 = (   2.4823155051,  -1.7532562182,   1.7532562182)
 A3 = (  -2.4823155051,  -1.7532562182,  -1.7532562182)
 
   2 primitive cells build up your supercell.
 

 Routine SETGRP: Setting up the symmetry group for a 
 simple tetragonal supercell.


 Subroutine GETGRP returns: Found  8 space group operations
 (whereof  8 operations were pure point group operations)
 out of a pool of 16 trial point group operations.


The static configuration has the point symmetry D_2d.


Analysis of symmetry for dynamics (positions and initial velocities):
=====================================================================
 Subroutine PRICEL returns following result:
 
  LATTYP: Found a body centered tetragonal cell.
 ALAT       =     3.5065124364
 C/A-ratio  =     1.4158315706
  
  Lattice vectors:
  
 A1 = (   2.4823155051,   1.7532562182,  -1.7532562182)
 A2 = (   2.4823155051,  -1.7532562182,   1.7532562182)
 A3 = (  -2.4823155051,  -1.7532562182,  -1.7532562182)
 
   2 primitive cells build up your supercell.
 

 Routine SETGRP: Setting up the symmetry group for a 
 simple tetragonal supercell.


 Subroutine GETGRP returns: Found  8 space group operations
 (whereof  8 operations were pure point group operations)
 out of a pool of 16 trial point group operations.


The dynamic configuration has the point symmetry D_2d.
 
 
 KPOINTS: Automatically generated k-point mesh    

Automatic generation of k-mesh.
Space group operators:
 irot       det(A)        alpha          n_x          n_y          n_z        tau_x        tau_y        tau_z
    1     1.000000     0.000000     1.000000     0.000000     0.000000     0.000000     0.000000     0.000000
    2    -1.000000    90.000000     1.000000     0.000000     0.000000     0.000000     0.000000     0.000000
    3     1.000000   180.000000     1.000000     0.000000     0.000000     0.000000     0.000000     0.000000
    4    -1.000000    90.000000    -1.000000     0.000000     0.000000     0.000000     0.000000     0.000000
    5    -1.000000   180.000000     0.000000     0.000000     1.000000     0.000000     0.000000     0.000000
    6     1.000000   180.000000     0.000000    -0.707107     0.707107     0.000000     0.000000     0.000000
    7    -1.000000   180.000000     0.000000     1.000000     0.000000     0.000000     0.000000     0.000000
    8     1.000000   180.000000     0.000000     0.707107     0.707107     0.000000     0.000000     0.000000
 
 Subroutine IBZKPT returns following result:
 ===========================================
 
 Found     60 irreducible k-points:
 
 Following reciprocal coordinates:
            Coordinates               Weight
  0.000000  0.000000  0.000000      1.000000
  0.166667  0.000000  0.000000      2.000000
  0.333333  0.000000  0.000000      2.000000
  0.500000  0.000000  0.000000      1.000000
  0.000000  0.125000  0.000000      4.000000
  0.166667  0.125000  0.000000      8.000000
  0.333333  0.125000  0.000000      8.000000
  0.500000  0.125000  0.000000      4.000000
  0.000000  0.250000  0.000000      4.000000
  0.166667  0.250000  0.000000      8.000000
  0.333333  0.250000  0.000000      8.000000
  0.500000  0.250000  0.000000      4.000000
  0.000000  0.375000  0.000000      4.000000
  0.166667  0.375000  0.000000      8.000000
  0.333333  0.375000  0.000000      8.000000
  0.500000  0.375000  0.000000      4.000000
  0.000000  0.500000  0.000000      2.000000
  0.166667  0.500000  0.000000      4.000000
  0.333333  0.500000  0.000000      4.000000
  0.500000  0.500000  0.000000      2.000000
  0.000000  0.125000  0.125000      4.000000
  0.166667  0.125000  0.125000      8.000000
  0.333333  0.125000  0.125000      8.000000
  0.500000  0.125000  0.125000      4.000000
  0.000000  0.250000  0.125000      8.000000
  0.166667  0.250000  0.125000     16.000000
  0.333333  0.250000  0.125000     16.000000
  0.500000  0.250000  0.125000      8.000000
  0.000000  0.375000  0.125000      8.000000
  0.166667  0.375000  0.125000     16.000000
  0.333333  0.375000  0.125000     16.000000
  0.500000  0.375000  0.125000      8.000000
  0.000000  0.500000  0.125000      4.000000
  0.166667  0.500000  0.125000      8.000000
  0.333333  0.500000  0.125000      8.000000
  0.500000  0.500000  0.125000      4.000000
  0.000000  0.250000  0.250000      4.000000
  0.166667  0.250000  0.250000      8.000000
  0.333333  0.250000  0.250000      8.000000
  0.500000  0.250000  0.250000      4.000000
  0.000000  0.375000  0.250000      8.000000
  0.166667  0.375000  0.250000     16.000000
  0.333333  0.375000  0.250000     16.000000
  0.500000  0.375000  0.250000      8.000000
  0.000000  0.500000  0.250000      4.000000
  0.166667  0.500000  0.250000      8.000000
  0.333333  0.500000  0.250000      8.000000
  0.500000  0.500000  0.250000      4.000000
  0.000000  0.375000  0.375000      4.000000
  0.166667  0.375000  0.375000      8.000000
  0.333333  0.375000  0.375000      8.000000
  0.500000  0.375000  0.375000      4.000000
  0.000000  0.500000  0.375000      4.000000
  0.166667  0.500000  0.375000      8.000000
  0.333333  0.500000  0.375000      8.000000
  0.500000  0.500000  0.375000      4.000000
  0.000000  0.500000  0.500000      1.000000
  0.166667  0.500000  0.500000      2.000000
  0.333333  0.500000  0.500000      2.000000
  0.500000  0.500000  0.500000      1.000000
 
 Following cartesian coordinates:
            Coordinates               Weight
  0.000000  0.000000  0.000000      1.000000
  0.033571  0.000000  0.000000      2.000000
  0.067142  0.000000  0.000000      2.000000
  0.100712  0.000000  0.000000      1.000000
  0.000000  0.035648  0.000000      4.000000
  0.033571  0.035648  0.000000      8.000000
  0.067142  0.035648  0.000000      8.000000
  0.100712  0.035648  0.000000      4.000000
  0.000000  0.071296  0.000000      4.000000
  0.033571  0.071296  0.000000      8.000000
  0.067142  0.071296  0.000000      8.000000
  0.100712  0.071296  0.000000      4.000000
  0.000000  0.106944  0.000000      4.000000
  0.033571  0.106944  0.000000      8.000000
  0.067142  0.106944  0.000000      8.000000
  0.100712  0.106944  0.000000      4.000000
  0.000000  0.142592  0.000000      2.000000
  0.033571  0.142592  0.000000      4.000000
  0.067142  0.142592  0.000000      4.000000
  0.100712  0.142592  0.000000      2.000000
  0.000000  0.035648  0.035648      4.000000
  0.033571  0.035648  0.035648      8.000000
  0.067142  0.035648  0.035648      8.000000
  0.100712  0.035648  0.035648      4.000000
  0.000000  0.071296  0.035648      8.000000
  0.033571  0.071296  0.035648     16.000000
  0.067142  0.071296  0.035648     16.000000
  0.100712  0.071296  0.035648      8.000000
  0.000000  0.106944  0.035648      8.000000
  0.033571  0.106944  0.035648     16.000000
  0.067142  0.106944  0.035648     16.000000
  0.100712  0.106944  0.035648      8.000000
  0.000000  0.142592  0.035648      4.000000
  0.033571  0.142592  0.035648      8.000000
  0.067142  0.142592  0.035648      8.000000
  0.100712  0.142592  0.035648      4.000000
  0.000000  0.071296  0.071296      4.000000
  0.033571  0.071296  0.071296      8.000000
  0.067142  0.071296  0.071296      8.000000
  0.100712  0.071296  0.071296      4.000000
  0.000000  0.106944  0.071296      8.000000
  0.033571  0.106944  0.071296     16.000000
  0.067142  0.106944  0.071296     16.000000
  0.100712  0.106944  0.071296      8.000000
  0.000000  0.142592  0.071296      4.000000
  0.033571  0.142592  0.071296      8.000000
  0.067142  0.142592  0.071296      8.000000
  0.100712  0.142592  0.071296      4.000000
  0.000000  0.106944  0.106944      4.000000
  0.033571  0.106944  0.106944      8.000000
  0.067142  0.106944  0.106944      8.000000
  0.100712  0.106944  0.106944      4.000000
  0.000000  0.142592  0.106944      4.000000
  0.033571  0.142592  0.106944      8.000000
  0.067142  0.142592  0.106944      8.000000
  0.100712  0.142592  0.106944      4.000000
  0.000000  0.142592  0.142592      1.000000
  0.033571  0.142592  0.142592      2.000000
  0.067142  0.142592  0.142592      2.000000
  0.100712  0.142592  0.142592      1.000000
 


--------------------------------------------------------------------------------------------------------




 Dimension of arrays:
   k-points           NKPTS =     60   k-points in BZ     NKDIM =     60   number of bands    NBANDS=     24
   number of dos      NEDOS =    301   number of ions     NIONS =      4
   non local maximal  LDIM  =      6   non local SUM 2l+1 LMDIM =     18
   total plane-waves  NPLWV =  11200
   max r-space proj   IRMAX =      1   max aug-charges    IRDMAX=    922
   dimension x,y,z NGX =    28 NGY =   20 NGZ =   20
   dimension x,y,z NGXF=    28 NGYF=   20 NGZF=   20
   support grid    NGXF=    28 NGYF=   20 NGZF=   20
   ions per type =               2   2
 NGX,Y,Z   is equivalent  to a cutoff of   9.38,  9.48,  9.48 a.u.
 NGXF,Y,Z  is equivalent  to a cutoff of   9.38,  9.48,  9.48 a.u.


 I would recommend the setting:
   dimension x,y,z NGX =    27 NGY =   19 NGZ =   19
 SYSTEM =  Name                                    
 POSCAR =  Zn S                                    

 Startparameter for this run:
   NWRITE =      2    write-flag & timer
   PREC   = single    normal or accurate (medium, high low for compatibility)
   ISTART =      0    job   : 0-new  1-cont  2-samecut
   ICHARG =      2    charge: 1-file 2-atom 10-const
   ISPIN  =      1    spin polarized calculation?
   LNONCOLLINEAR =      F non collinear calculations
   LSORBIT =      F    spin-orbit coupling
   INIWAV =      1    electr: 0-lowe 1-rand  2-diag
   LASPH  =      F    aspherical Exc in radial PAW
   METAGGA=      F    non-selfconsistent MetaGGA calc.

 Electronic Relaxation 1
   ENCUT  =  500.0 eV  36.75 Ry    6.06 a.u.   9.05  6.39  6.39*2*pi/ulx,y,z
   ENINI  =  500.0     initial cutoff
   ENAUG  =  575.9 eV  augmentation charge cutoff
   NELM   =     60;   NELMIN=  2; NELMDL= -5     # of ELM steps 
   EDIFF  = 0.1E-05   stopping-criterion for ELM
   LREAL  =      F    real-space projection
   NLSPLINE    = F    spline interpolate recip. space projectors
   LCOMPAT=      F    compatible to vasp.4.4
   GGA_COMPAT  = T    GGA compatible to vasp.4.4-vasp.4.6
   LMAXPAW     = -100 max onsite density
   LMAXMIX     =    2 max onsite mixed and CHGCAR
   VOSKOWN=      0    Vosko Wilk Nusair interpolation
   ROPT   =    0.00000   0.00000
 Ionic relaxation
   EDIFFG = 0.1E-02   stopping-criterion for IOM
   NSW    =      0    number of steps for IOM
   NBLOCK =      1;   KBLOCK =      1    inner block; outer block 
   IBRION =     -1    ionic relax: 0-MD 1-quasi-New 2-CG
   NFREE  =      0    steps in history (QN), initial steepest desc. (CG)
   ISIF   =      3    stress and relaxation
   IWAVPR =     10    prediction:  0-non 1-charg 2-wave 3-comb
   ISYM   =      2    0-nonsym 1-usesym 2-fastsym
   LCORR  =      T    Harris-Foulkes like correction to forces

   POTIM  = 0.5000    time-step for ionic-motion
   TEIN   =    0.0    initial temperature
   TEBEG  =    0.0;   TEEND  =   0.0 temperature during run
   SMASS  =  -3.00    Nose mass-parameter (am)
   estimated Nose-frequenzy (Omega)   =  0.10E-29 period in steps =****** mass=  -0.563E-27a.u.
   SCALEE = 1.0000    scale energy and forces
   NPACO  =    256;   APACO  = 16.0  distance and # of slots for P.C.
   PSTRESS=    0.0 pullay stress

  Mass of Ions in am
   POMASS =  65.39 32.07
  Ionic Valenz
   ZVAL   =  12.00  6.00
  Atomic Wigner-Seitz radii
   RWIGS  =  -1.00 -1.00
  virtual crystal weights 
   VCA    =   1.00  1.00
   NELECT =      36.0000    total number of electrons
   NUPDOWN=      -1.0000    fix difference up-down

 DOS related values:
   EMIN   =  10.00;   EMAX   =-10.00  energy-range for DOS
   EFERMI =   0.00
   ISMEAR =     0;   SIGMA  =   0.01  broadening in eV -4-tet -1-fermi 0-gaus

 Electronic relaxation 2 (details)
   IALGO  =     38    algorithm
   LDIAG  =      T    sub-space diagonalisation (order eigenvalues)
   LSUBROT=      F    optimize rotation matrix (better conditioning)
   TURBO    =      0    0=normal 1=particle mesh
   IRESTART =      0    0=no restart 2=restart with 2 vectors
   NREBOOT  =      0    no. of reboots
   NMIN     =      0    reboot dimension
   EREF     =   0.00    reference energy to select bands
   IMIX   =      4    mixing-type and parameters
     AMIX     =   0.40;   BMIX     =  1.00
     AMIX_MAG =   1.60;   BMIX_MAG =  1.00
     AMIN     =   0.01
     WC   =   100.;   INIMIX=   1;  MIXPRE=   1;  MAXMIX= -45

 Intra band minimization:
   WEIMIN = 0.0000     energy-eigenvalue tresh-hold
   EBREAK =  0.10E-07  absolut break condition
   DEPER  =   0.30     relativ break condition  

   TIME   =   0.40     timestep for ELM

  volume/ion in A,a.u.               =      15.26       102.99
  Fermi-wavevector in a.u.,A,eV,Ry     =   1.372871  2.594350 25.643920  1.884775
  Thomas-Fermi vector in A             =   2.498439
 
 Write flags
   LWAVE  =      F    write WAVECAR
   LCHARG =      T    write CHGCAR
   LVTOT  =      F    write LOCPOT, total local potential
   LVHAR  =      T    write LOCPOT, Hartree potential only
   LELF   =      F    write electronic localiz. function (ELF)
   LORBIT =     10    0 simple, 1 ext, 2 COOP (PROOUT)


 Dipole corrections
   LMONO  =      F    monopole corrections only (constant potential shift)
   LDIPOL =      F    correct potential (dipole corrections)
   IDIPOL =      0    1-x, 2-y, 3-z, 4-all directions 
   EPSILON=  1.0000000 bulk dielectric constant

 Core level calculations are selected ICORELEVEL =  1
 Exchange correlation treatment:
   GGA     =    PS    GGA type
   LEXCH   =    14    internal setting for exchange type
   VOSKOWN=      0    Vosko Wilk Nusair interpolation
   LHFCALC =     F    Hartree Fock is set to
   LHFONE  =     F    Hartree Fock one center treatment
   AEXX    =    0.0000 exact exchange contribution

 Linear response parameters
   LEPSILON=     F    determine dielectric tensor
   LRPA    =     F    only Hartree local field effects (RPA)
   LNABLA  =     F    use nabla operator in PAW spheres
   LVEL    =     F    velocity operator in full k-point grid
   LINTERFAST=   F  fast interpolation
   KINTER  =     0    interpolate to denser k-point grid
   CSHIFT  =0.1000    complex shift for real part using Kramers Kronig
   OMEGAMAX=  -1.0    maximum frequency
   DEG_THRESHOLD= 0.2000000E-02 threshold for treating states as degnerate
   RTIME   =    0.100 relaxation time in fs

 Orbital magnetization related:
   ORBITALMAG=     F  switch on orbital magnetization
   LCHIMAG   =     F  perturbation theory with respect to B field
   DQ        =  0.001000  dq finite difference perturbation B field



--------------------------------------------------------------------------------------------------------


 Static calculation
 charge density and potential will be updated during run
 non-spin polarized calculation
 Variant of blocked Davidson
 Davidson routine will perform the subspace rotation
 perform sub-space diagonalisation
    after iterative eigenvector-optimisation
 modified Broyden-mixing scheme, WC =      100.0
 initial mixing is a Kerker type mixing with AMIX =  0.4000 and BMIX =      1.0000
 Hartree-type preconditioning will be used
 using additional bands            6
 reciprocal scheme for non local part
 use partial core corrections
 calculate Harris-corrections to forces 
   (improved forces if not selfconsistent)
 use gradient corrections 
 use of overlap-Matrix (Vanderbilt PP)
 Gauss-broadening in eV      SIGMA  =   0.01


--------------------------------------------------------------------------------------------------------


  energy-cutoff  :      500.00
  volume of cell :       61.04
      direct lattice vectors                 reciprocal lattice vectors
     4.964631010  0.000000000  0.000000000     0.201424839  0.000000000  0.000000000
     0.000000000  3.506512436  0.000000000     0.000000000  0.285183646  0.000000000
     0.000000000  0.000000000  3.506512436     0.000000000  0.000000000  0.285183646

  length of vectors
     4.964631010  3.506512436  3.506512436     0.201424839  0.285183646  0.285183646


 
 k-points in units of 2pi/SCALE and weight: Automatically generated k-point mesh    
   0.00000000  0.00000000  0.00000000       0.003
   0.03357081  0.00000000  0.00000000       0.005
   0.06714161  0.00000000  0.00000000       0.005
   0.10071242  0.00000000  0.00000000       0.003
   0.00000000  0.03564796  0.00000000       0.010
   0.03357081  0.03564796  0.00000000       0.021
   0.06714161  0.03564796  0.00000000       0.021
   0.10071242  0.03564796  0.00000000       0.010
   0.00000000  0.07129591  0.00000000       0.010
   0.03357081  0.07129591  0.00000000       0.021
   0.06714161  0.07129591  0.00000000       0.021
   0.10071242  0.07129591  0.00000000       0.010
   0.00000000  0.10694387  0.00000000       0.010
   0.03357081  0.10694387  0.00000000       0.021
   0.06714161  0.10694387  0.00000000       0.021
   0.10071242  0.10694387  0.00000000       0.010
   0.00000000  0.14259182  0.00000000       0.005
   0.03357081  0.14259182  0.00000000       0.010
   0.06714161  0.14259182  0.00000000       0.010
   0.10071242  0.14259182  0.00000000       0.005
   0.00000000  0.03564796  0.03564796       0.010
   0.03357081  0.03564796  0.03564796       0.021
   0.06714161  0.03564796  0.03564796       0.021
   0.10071242  0.03564796  0.03564796       0.010
   0.00000000  0.07129591  0.03564796       0.021
   0.03357081  0.07129591  0.03564796       0.042
   0.06714161  0.07129591  0.03564796       0.042
   0.10071242  0.07129591  0.03564796       0.021
   0.00000000  0.10694387  0.03564796       0.021
   0.03357081  0.10694387  0.03564796       0.042
   0.06714161  0.10694387  0.03564796       0.042
   0.10071242  0.10694387  0.03564796       0.021
   0.00000000  0.14259182  0.03564796       0.010
   0.03357081  0.14259182  0.03564796       0.021
   0.06714161  0.14259182  0.03564796       0.021
   0.10071242  0.14259182  0.03564796       0.010
   0.00000000  0.07129591  0.07129591       0.010
   0.03357081  0.07129591  0.07129591       0.021
   0.06714161  0.07129591  0.07129591       0.021
   0.10071242  0.07129591  0.07129591       0.010
   0.00000000  0.10694387  0.07129591       0.021
   0.03357081  0.10694387  0.07129591       0.042
   0.06714161  0.10694387  0.07129591       0.042
   0.10071242  0.10694387  0.07129591       0.021
   0.00000000  0.14259182  0.07129591       0.010
   0.03357081  0.14259182  0.07129591       0.021
   0.06714161  0.14259182  0.07129591       0.021
   0.10071242  0.14259182  0.07129591       0.010
   0.00000000  0.10694387  0.10694387       0.010
   0.03357081  0.10694387  0.10694387       0.021
   0.06714161  0.10694387  0.10694387       0.021
   0.10071242  0.10694387  0.10694387       0.010
   0.00000000  0.14259182  0.10694387       0.010
   0.03357081  0.14259182  0.10694387       0.021
   0.06714161  0.14259182  0.10694387       0.021
   0.10071242  0.14259182  0.10694387       0.010
   0.00000000  0.14259182  0.14259182       0.003
   0.03357081  0.14259182  0.14259182       0.005
   0.06714161  0.14259182  0.14259182       0.005
   0.10071242  0.14259182  0.14259182       0.003
 
 k-points in reciprocal lattice and weights: Automatically generated k-point mesh    
   0.00000000  0.00000000  0.00000000       0.003
   0.16666667  0.00000000  0.00000000       0.005
   0.33333333  0.00000000  0.00000000       0.005
   0.50000000  0.00000000  0.00000000       0.003
   0.00000000  0.12500000  0.00000000       0.010
   0.16666667  0.12500000  0.00000000       0.021
   0.33333333  0.12500000  0.00000000       0.021
   0.50000000  0.12500000  0.00000000       0.010
   0.00000000  0.25000000  0.00000000       0.010
   0.16666667  0.25000000  0.00000000       0.021
   0.33333333  0.25000000  0.00000000       0.021
   0.50000000  0.25000000  0.00000000       0.010
   0.00000000  0.37500000  0.00000000       0.010
   0.16666667  0.37500000  0.00000000       0.021
   0.33333333  0.37500000  0.00000000       0.021
   0.50000000  0.37500000  0.00000000       0.010
   0.00000000  0.50000000  0.00000000       0.005
   0.16666667  0.50000000  0.00000000       0.010
   0.33333333  0.50000000  0.00000000       0.010
   0.50000000  0.50000000  0.00000000       0.005
   0.00000000  0.12500000  0.12500000       0.010
   0.16666667  0.12500000  0.12500000       0.021
   0.33333333  0.12500000  0.12500000       0.021
   0.50000000  0.12500000  0.12500000       0.010
   0.00000000  0.25000000  0.12500000       0.021
   0.16666667  0.25000000  0.12500000       0.042
   0.33333333  0.25000000  0.12500000       0.042
   0.50000000  0.25000000  0.12500000       0.021
   0.00000000  0.37500000  0.12500000       0.021
   0.16666667  0.37500000  0.12500000       0.042
   0.33333333  0.37500000  0.12500000       0.042
   0.50000000  0.37500000  0.12500000       0.021
   0.00000000  0.50000000  0.12500000       0.010
   0.16666667  0.50000000  0.12500000       0.021
   0.33333333  0.50000000  0.12500000       0.021
   0.50000000  0.50000000  0.12500000       0.010
   0.00000000  0.25000000  0.25000000       0.010
   0.16666667  0.25000000  0.25000000       0.021
   0.33333333  0.25000000  0.25000000       0.021
   0.50000000  0.25000000  0.25000000       0.010
   0.00000000  0.37500000  0.25000000       0.021
   0.16666667  0.37500000  0.25000000       0.042
   0.33333333  0.37500000  0.25000000       0.042
   0.50000000  0.37500000  0.25000000       0.021
   0.00000000  0.50000000  0.25000000       0.010
   0.16666667  0.50000000  0.25000000       0.021
   0.33333333  0.50000000  0.25000000       0.021
   0.50000000  0.50000000  0.25000000       0.010
   0.00000000  0.37500000  0.37500000       0.010
   0.16666667  0.37500000  0.37500000       0.021
   0.33333333  0.37500000  0.37500000       0.021
   0.50000000  0.37500000  0.37500000       0.010
   0.00000000  0.50000000  0.37500000       0.010
   0.16666667  0.50000000  0.37500000       0.021
   0.33333333  0.50000000  0.37500000       0.021
   0.50000000  0.50000000  0.37500000       0.010
   0.00000000  0.50000000  0.50000000       0.003
   0.16666667  0.50000000  0.50000000       0.005
   0.33333333  0.50000000  0.50000000       0.005
   0.50000000  0.50000000  0.50000000       0.003
 
 position of ions in fractional coordinates (direct lattice) 
   0.00000000  0.00000000  0.00000000
   0.50000000  0.50000000  0.50000000
   0.25000000  0.50000000  0.00000000
   0.75000000  0.00000000  0.50000000
 
 position of ions in cartesian coordinates  (Angst):
   0.00000000  0.00000000  0.00000000
   2.48231551  1.75325622  1.75325622
   1.24115775  1.75325622  0.00000000
   3.72347326  0.00000000  1.75325622
 


--------------------------------------------------------------------------------------------------------


 k-point  1 :   0.0000 0.0000 0.0000  plane waves:    1523
 k-point  2 :   0.1667 0.0000 0.0000  plane waves:    1542
 k-point  3 :   0.3333 0.0000 0.0000  plane waves:    1554
 k-point  4 :   0.5000 0.0000 0.0000  plane waves:    1538
 k-point  5 :   0.0000 0.1250 0.0000  plane waves:    1539
 k-point  6 :   0.1667 0.1250 0.0000  plane waves:    1556
 k-point  7 :   0.3333 0.1250 0.0000  plane waves:    1559
 k-point  8 :   0.5000 0.1250 0.0000  plane waves:    1566
 k-point  9 :   0.0000 0.2500 0.0000  plane waves:    1537
 k-point 10 :   0.1667 0.2500 0.0000  plane waves:    1556
 k-point 11 :   0.3333 0.2500 0.0000  plane waves:    1549
 k-point 12 :   0.5000 0.2500 0.0000  plane waves:    1566
 k-point 13 :   0.0000 0.3750 0.0000  plane waves:    1561
 k-point 14 :   0.1667 0.3750 0.0000  plane waves:    1553
 k-point 15 :   0.3333 0.3750 0.0000  plane waves:    1549
 k-point 16 :   0.5000 0.3750 0.0000  plane waves:    1556
 k-point 17 :   0.0000 0.5000 0.0000  plane waves:    1568
 k-point 18 :   0.1667 0.5000 0.0000  plane waves:    1554
 k-point 19 :   0.3333 0.5000 0.0000  plane waves:    1554
 k-point 20 :   0.5000 0.5000 0.0000  plane waves:    1556
 k-point 21 :   0.0000 0.1250 0.1250  plane waves:    1547
 k-point 22 :   0.1667 0.1250 0.1250  plane waves:    1553
 k-point 23 :   0.3333 0.1250 0.1250  plane waves:    1552
 k-point 24 :   0.5000 0.1250 0.1250  plane waves:    1560
 k-point 25 :   0.0000 0.2500 0.1250  plane waves:    1550
 k-point 26 :   0.1667 0.2500 0.1250  plane waves:    1554
 k-point 27 :   0.3333 0.2500 0.1250  plane waves:    1557
 k-point 28 :   0.5000 0.2500 0.1250  plane waves:    1556
 k-point 29 :   0.0000 0.3750 0.1250  plane waves:    1549
 k-point 30 :   0.1667 0.3750 0.1250  plane waves:    1552
 k-point 31 :   0.3333 0.3750 0.1250  plane waves:    1555
 k-point 32 :   0.5000 0.3750 0.1250  plane waves:    1556
 k-point 33 :   0.0000 0.5000 0.1250  plane waves:    1550
 k-point 34 :   0.1667 0.5000 0.1250  plane waves:    1558
 k-point 35 :   0.3333 0.5000 0.1250  plane waves:    1550
 k-point 36 :   0.5000 0.5000 0.1250  plane waves:    1540
 k-point 37 :   0.0000 0.2500 0.2500  plane waves:    1541
 k-point 38 :   0.1667 0.2500 0.2500  plane waves:    1542
 k-point 39 :   0.3333 0.2500 0.2500  plane waves:    1557
 k-point 40 :   0.5000 0.2500 0.2500  plane waves:    1568
 k-point 41 :   0.0000 0.3750 0.2500  plane waves:    1538
 k-point 42 :   0.1667 0.3750 0.2500  plane waves:    1543
 k-point 43 :   0.3333 0.3750 0.2500  plane waves:    1552
 k-point 44 :   0.5000 0.3750 0.2500  plane waves:    1552
 k-point 45 :   0.0000 0.5000 0.2500  plane waves:    1544
 k-point 46 :   0.1667 0.5000 0.2500  plane waves:    1546
 k-point 47 :   0.3333 0.5000 0.2500  plane waves:    1556
 k-point 48 :   0.5000 0.5000 0.2500  plane waves:    1528
 k-point 49 :   0.0000 0.3750 0.3750  plane waves:    1547
 k-point 50 :   0.1667 0.3750 0.3750  plane waves:    1542
 k-point 51 :   0.3333 0.3750 0.3750  plane waves:    1540
 k-point 52 :   0.5000 0.3750 0.3750  plane waves:    1538
 k-point 53 :   0.0000 0.5000 0.3750  plane waves:    1542
 k-point 54 :   0.1667 0.5000 0.3750  plane waves:    1534
 k-point 55 :   0.3333 0.5000 0.3750  plane waves:    1532
 k-point 56 :   0.5000 0.5000 0.3750  plane waves:    1532
 k-point 57 :   0.0000 0.5000 0.5000  plane waves:    1548
 k-point 58 :   0.1667 0.5000 0.5000  plane waves:    1532
 k-point 59 :   0.3333 0.5000 0.5000  plane waves:    1536
 k-point 60 :   0.5000 0.5000 0.5000  plane waves:    1544

 maximum and minimum number of plane-waves per node :      1568     1523

 maximum number of plane-waves:      1568
 maximum index in each direction: 
   IXMAX=    9   IYMAX=    6   IZMAX=    6
   IXMIN=   -9   IYMIN=   -6   IZMIN=   -6

 WARNING: aliasing errors must be expected set NGX to  38 to avoid them
 WARNING: aliasing errors must be expected set NGY to  26 to avoid them
 WARNING: aliasing errors must be expected set NGZ to  26 to avoid them
 aliasing errors are usually negligible using standard VASP settings
 and one can safely disregard these warnings

 serial   3D FFT for wavefunctions
 parallel 3D FFT for charge:
    minimum data exchange during FFTs selected (reduces bandwidth)


 total amount of memory used by VASP on root node    64282. kBytes
========================================================================

   base      :      30000. kBytes
   nonl-proj :      27264. kBytes
   fftplans  :        137. kBytes
   grid      :        576. kBytes
   one-center:         62. kBytes
   wavefun   :       6243. kBytes
 
     INWAV:  cpu time    0.0000: real time    0.0005
 Broyden mixing: mesh for mixing (old mesh)
   NGX = 19   NGY = 13   NGZ = 13
  (NGX  = 28   NGY  = 20   NGZ  = 20)
  gives a total of   3211 points

 initial charge density was supplied:
 charge density of overlapping atoms calculated
 number of electron      36.0000000 magnetization 
 keeping initial charge density in first step


--------------------------------------------------------------------------------------------------------


 Maximum index for augmentation-charges          142 (set IRDMAX)


--------------------------------------------------------------------------------------------------------


 First call to EWALD:  gamma=   0.450
 Maximum number of real-space cells 2x 3x 3
 Maximum number of reciprocal cells 3x 2x 2

 FEWALD executed in parallel
    FEWALD:  cpu time    0.0021: real time    0.0104


----------------------------------------- Iteration    1(   1)  ---------------------------------------


    POTLOK:  cpu time    0.0031: real time    0.0305
    SETDIJ:  cpu time    0.0008: real time    0.0069
     EDDAV:  cpu time    0.3955: real time    1.2299
       DOS:  cpu time    0.0019: real time    0.0058
    --------------------------------------------
      LOOP:  cpu time    0.4105: real time    1.2826

 eigenvalue-minimisations  :  2880
 total energy-change (2. order) : 0.1865370E+03  (-0.1839844E+04)
 number of electron      36.0000000 magnetization 
 augmentation part       36.0000000 magnetization 

 Free energy of the ion-electron system (eV)
  ---------------------------------------------------
  alpha Z        PSCENC =       185.24551836
  Ewald energy   TEWEN  =     -2730.71446512
  -Hartree energ DENC   =     -1259.87595644
  -exchange      EXHF   =         0.00000000
  -V(xc)+E(xc)   XCENC  =       143.23959114
  PAW double counting   =      3343.44361914    -3692.01684003
  entropy T*S    EENTRO =        -0.00020845
  eigenvalues    EBANDS =       149.07138834
  atomic energy  EATOM  =      4048.14435094
  Solvation  Ediel_sol  =         0.00000000
  ---------------------------------------------------
  free energy    TOTEN  =       186.53699789 eV

  energy without entropy =      186.53720634  energy(sigma->0) =      186.53710212


--------------------------------------------------------------------------------------------------------




----------------------------------------- Iteration    1(   2)  ---------------------------------------


     EDDAV:  cpu time    0.4513: real time    1.3764
       DOS:  cpu time    0.0008: real time    0.0023
    --------------------------------------------
      LOOP:  cpu time    0.4529: real time    1.3805

 eigenvalue-minimisations  :  3408
 total energy-change (2. order) :-0.1906191E+03  (-0.1863173E+03)
 number of electron      36.0000000 magnetization 
 augmentation part       36.0000000 magnetization 

 Free energy of the ion-electron system (eV)
  ---------------------------------------------------
  alpha Z        PSCENC =       185.24551836
  Ewald energy   TEWEN  =     -2730.71446512
  -Hartree energ DENC   =     -1259.87595644
  -exchange      EXHF   =         0.00000000
  -V(xc)+E(xc)   XCENC  =       143.23959114
  PAW double counting   =      3343.44361914    -3692.01684003
  entropy T*S    EENTRO =        -0.00000000
  eigenvalues    EBANDS =       -41.54796369
  atomic energy  EATOM  =      4048.14435094
  Solvation  Ediel_sol  =         0.00000000
  ---------------------------------------------------
  free energy    TOTEN  =        -4.08214569 eV

  energy without entropy =       -4.08214569  energy(sigma->0) =       -4.08214569


--------------------------------------------------------------------------------------------------------




----------------------------------------- Iteration    1(   3)  ---------------------------------------


     EDDAV:  cpu time    0.4851: real time    1.4168
       DOS:  cpu time    0.0007: real time    0.0021
    --------------------------------------------
      LOOP:  cpu time    0.4867: real time    1.4215

 eigenvalue-minimisations  :  3564
 total energy-change (2. order) :-0.1074935E+02  (-0.1073186E+02)
 number of electron      36.0000000 magnetization 
 augmentation part       36.0000000 magnetization 

 Free energy of the ion-electron system (eV)
  ---------------------------------------------------
  alpha Z        PSCENC =       185.24551836
  Ewald energy   TEWEN  =     -2730.71446512
  -Hartree energ DENC   =     -1259.87595644
  -exchange      EXHF   =         0.00000000
  -V(xc)+E(xc)   XCENC  =       143.23959114
  PAW double counting   =      3343.44361914    -3692.01684003
  entropy T*S    EENTRO =        -0.00000000
  eigenvalues    EBANDS =       -52.29730996
  atomic energy  EATOM  =      4048.14435094
  Solvation  Ediel_sol  =         0.00000000
  ---------------------------------------------------
  free energy    TOTEN  =       -14.83149196 eV

  energy without entropy =      -14.83149196  energy(sigma->0) =      -14.83149196


--------------------------------------------------------------------------------------------------------




----------------------------------------- Iteration    1(   4)  ---------------------------------------


     EDDAV:  cpu time    0.4848: real time    1.4745
       DOS:  cpu time    0.0006: real time    0.0019
    --------------------------------------------
      LOOP:  cpu time    0.4862: real time    1.4796

 eigenvalue-minimisations  :  3744
 total energy-change (2. order) :-0.1288330E+00  (-0.1288042E+00)
 number of electron      36.0000000 magnetization 
 augmentation part       36.0000000 magnetization 

 Free energy of the ion-electron system (eV)
  ---------------------------------------------------
  alpha Z        PSCENC =       185.24551836
  Ewald energy   TEWEN  =     -2730.71446512
  -Hartree energ DENC   =     -1259.87595644
  -exchange      EXHF   =         0.00000000
  -V(xc)+E(xc)   XCENC  =       143.23959114
  PAW double counting   =      3343.44361914    -3692.01684003
  entropy T*S    EENTRO =        -0.00000000
  eigenvalues    EBANDS =       -52.42614298
  atomic energy  EATOM  =      4048.14435094
  Solvation  Ediel_sol  =         0.00000000
  ---------------------------------------------------
  free energy    TOTEN  =       -14.96032498 eV

  energy without entropy =      -14.96032498  energy(sigma->0) =      -14.96032498


--------------------------------------------------------------------------------------------------------




----------------------------------------- Iteration    1(   5)  ---------------------------------------


     EDDAV:  cpu time    0.5056: real time    1.4395
       DOS:  cpu time    0.0007: real time    0.0245
    CHARGE:  cpu time    0.0131: real time    0.0214
    MIXING:  cpu time    0.0029: real time    0.0038
    --------------------------------------------
      LOOP:  cpu time    0.5233: real time    1.4924

 eigenvalue-minimisations  :  3600
 total energy-change (2. order) :-0.2086998E-02  (-0.2086895E-02)
 number of electron      36.0003761 magnetization 
 augmentation part       13.9418510 magnetization 

 Broyden mixing:
  rms(total) = 0.15960E+01    rms(broyden)= 0.15959E+01
  rms(prec ) = 0.18742E+01
  weight for this iteration     100.00

 Free energy of the ion-electron system (eV)
  ---------------------------------------------------
  alpha Z        PSCENC =       185.24551836
  Ewald energy   TEWEN  =     -2730.71446512
  -Hartree energ DENC   =     -1259.87595644
  -exchange      EXHF   =         0.00000000
  -V(xc)+E(xc)   XCENC  =       143.23959114
  PAW double counting   =      3343.44361914    -3692.01684003
  entropy T*S    EENTRO =        -0.00000000
  eigenvalues    EBANDS =       -52.42822998
  atomic energy  EATOM  =      4048.14435094
  Solvation  Ediel_sol  =         0.00000000
  ---------------------------------------------------
  free energy    TOTEN  =       -14.96241198 eV

  energy without entropy =      -14.96241198  energy(sigma->0) =      -14.96241198


--------------------------------------------------------------------------------------------------------




----------------------------------------- Iteration    1(   6)  ---------------------------------------


    POTLOK:  cpu time    0.0026: real time    0.0071
    SETDIJ:  cpu time    0.0006: real time    0.0048
     EDDAV:  cpu time    0.4874: real time    1.4463
       DOS:  cpu time    0.0007: real time    0.0210
    CHARGE:  cpu time    0.0135: real time    0.0236
    MIXING:  cpu time    0.0005: real time    0.0015
    --------------------------------------------
      LOOP:  cpu time    0.5063: real time    1.5057

 eigenvalue-minimisations  :  3696
 total energy-change (2. order) : 0.9743981E+00  (-0.3073283E+00)
 number of electron      36.0003820 magnetization 
 augmentation part       14.2797194 magnetization 

 Broyden mixing:
  rms(total) = 0.11661E+01    rms(broyden)= 0.11661E+01
  rms(prec ) = 0.12156E+01
  weight for this iteration     100.00

 eigenvalues of (default mixing * dielectric matrix)
  average eigenvalue GAMMA=   2.3820
  2.3820

 Free energy of the ion-electron system (eV)
  ---------------------------------------------------
  alpha Z        PSCENC =       185.24551836
  Ewald energy   TEWEN  =     -2730.71446512
  -Hartree energ DENC   =     -1238.51596963
  -exchange      EXHF   =         0.00000000
  -V(xc)+E(xc)   XCENC  =       142.70734060
  PAW double counting   =      3828.03970906    -4171.12550384
  entropy T*S    EENTRO =        -0.00000000
  eigenvalues    EBANDS =       -77.76899425
  atomic energy  EATOM  =      4048.14435094
  Solvation  Ediel_sol  =         0.00000000
  ---------------------------------------------------
  free energy    TOTEN  =       -13.98801387 eV

  energy without entropy =      -13.98801387  energy(sigma->0) =      -13.98801387


--------------------------------------------------------------------------------------------------------




----------------------------------------- Iteration    1(   7)  ---------------------------------------


    POTLOK:  cpu time    0.0026: real time    0.0079
    SETDIJ:  cpu time    0.0007: real time    0.0041
     EDDAV:  cpu time    0.3747: real time    1.2939
       DOS:  cpu time    0.0006: real time    0.0214
    CHARGE:  cpu time    0.0131: real time    0.0268
    MIXING:  cpu time    0.0004: real time    0.0016
    --------------------------------------------
      LOOP:  cpu time    0.3931: real time    1.3581

 eigenvalue-minimisations  :  2916
 total energy-change (2. order) : 0.2460294E-01  (-0.1922845E+00)
 number of electron      36.0003789 magnetization 
 augmentation part       14.2356360 magnetization 

 Broyden mixing:
  rms(total) = 0.46152E+00    rms(broyden)= 0.46152E+00
  rms(prec ) = 0.48574E+00
  weight for this iteration     100.00

 eigenvalues of (default mixing * dielectric matrix)
  average eigenvalue GAMMA=   1.7261
  0.8144  2.6378

 Free energy of the ion-electron system (eV)
  ---------------------------------------------------
  alpha Z        PSCENC =       185.24551836
  Ewald energy   TEWEN  =     -2730.71446512
  -Hartree energ DENC   =     -1242.02846718
  -exchange      EXHF   =         0.00000000
  -V(xc)+E(xc)   XCENC  =       143.14436263
  PAW double counting   =      4501.94784815    -4854.24029433
  entropy T*S    EENTRO =        -0.00000000
  eigenvalues    EBANDS =       -65.46226440
  atomic energy  EATOM  =      4048.14435094
  Solvation  Ediel_sol  =         0.00000000
  ---------------------------------------------------
  free energy    TOTEN  =       -13.96341093 eV

  energy without entropy =      -13.96341093  energy(sigma->0) =      -13.96341093


--------------------------------------------------------------------------------------------------------




----------------------------------------- Iteration    1(   8)  ---------------------------------------


    POTLOK:  cpu time    0.0024: real time    0.0078
    SETDIJ:  cpu time    0.0005: real time    0.0026
     EDDAV:  cpu time    0.4783: real time    1.7803
       DOS:  cpu time    0.0006: real time    0.0121
    CHARGE:  cpu time    0.0148: real time    0.0398
    MIXING:  cpu time    0.0005: real time    0.0017
    --------------------------------------------
      LOOP:  cpu time    0.4981: real time    1.8469

 eigenvalue-minimisations  :  3948
 total energy-change (2. order) : 0.1409142E-01  (-0.3727589E-02)
 number of electron      36.0003792 magnetization 
 augmentation part       14.2445095 magnetization 

 Broyden mixing:
  rms(total) = 0.10931E+00    rms(broyden)= 0.10931E+00
  rms(prec ) = 0.12977E+00
  weight for this iteration     100.00

 eigenvalues of (default mixing * dielectric matrix)
  average eigenvalue GAMMA=   1.5583
  2.4664  0.9745  1.2339

 Free energy of the ion-electron system (eV)
  ---------------------------------------------------
  alpha Z        PSCENC =       185.24551836
  Ewald energy   TEWEN  =     -2730.71446512
  -Hartree energ DENC   =     -1238.68363395
  -exchange      EXHF   =         0.00000000
  -V(xc)+E(xc)   XCENC  =       143.01959298
  PAW double counting   =      4939.03925666    -5293.04458286
  entropy T*S    EENTRO =        -0.00000000
  eigenvalues    EBANDS =       -66.95535653
  atomic energy  EATOM  =      4048.14435094
  Solvation  Ediel_sol  =         0.00000000
  ---------------------------------------------------
  free energy    TOTEN  =       -13.94931951 eV

  energy without entropy =      -13.94931951  energy(sigma->0) =      -13.94931951


--------------------------------------------------------------------------------------------------------




----------------------------------------- Iteration    1(   9)  ---------------------------------------


    POTLOK:  cpu time    0.0024: real time    0.0073
    SETDIJ:  cpu time    0.0008: real time    0.0041
     EDDAV:  cpu time    0.4393: real time    1.4989
       DOS:  cpu time    0.0007: real time    0.0115
    CHARGE:  cpu time    0.0143: real time    0.0341
    MIXING:  cpu time    0.0006: real time    0.0018
    --------------------------------------------
      LOOP:  cpu time    0.4588: real time    1.5604

 eigenvalue-minimisations  :  3432
 total energy-change (2. order) : 0.5079580E-02  (-0.1905285E-02)
 number of electron      36.0003797 magnetization 
 augmentation part       14.2517151 magnetization 

 Broyden mixing:
  rms(total) = 0.20758E-01    rms(broyden)= 0.20758E-01
  rms(prec ) = 0.23708E-01
  weight for this iteration     100.00

 eigenvalues of (default mixing * dielectric matrix)
  average eigenvalue GAMMA=   1.2525
  2.4445  1.2464  0.9698  0.3493

 Free energy of the ion-electron system (eV)
  ---------------------------------------------------
  alpha Z        PSCENC =       185.24551836
  Ewald energy   TEWEN  =     -2730.71446512
  -Hartree energ DENC   =     -1237.05821182
  -exchange      EXHF   =         0.00000000
  -V(xc)+E(xc)   XCENC  =       142.92614456
  PAW double counting   =      5060.53286024    -5414.53938205
  entropy T*S    EENTRO =        -0.00000000
  eigenvalues    EBANDS =       -68.48105505
  atomic energy  EATOM  =      4048.14435094
  Solvation  Ediel_sol  =         0.00000000
  ---------------------------------------------------
  free energy    TOTEN  =       -13.94423993 eV

  energy without entropy =      -13.94423993  energy(sigma->0) =      -13.94423993


--------------------------------------------------------------------------------------------------------




----------------------------------------- Iteration    1(  10)  ---------------------------------------


    POTLOK:  cpu time    0.0024: real time    0.0065
    SETDIJ:  cpu time    0.0009: real time    0.0038
     EDDAV:  cpu time    0.4958: real time    1.4663
       DOS:  cpu time    0.0007: real time    0.0208
    CHARGE:  cpu time    0.0146: real time    0.0260
    MIXING:  cpu time    0.0006: real time    0.0019
    --------------------------------------------
      LOOP:  cpu time    0.5160: real time    1.5278

 eigenvalue-minimisations  :  3732
 total energy-change (2. order) :-0.1005569E-05  (-0.5475495E-04)
 number of electron      36.0003797 magnetization 
 augmentation part       14.2507865 magnetization 

 Broyden mixing:
  rms(total) = 0.20923E-01    rms(broyden)= 0.20923E-01
  rms(prec ) = 0.22466E-01
  weight for this iteration     100.00

 eigenvalues of (default mixing * dielectric matrix)
  average eigenvalue GAMMA=   1.6070
  2.4154  1.7681  1.7681  1.0416  1.0416

 Free energy of the ion-electron system (eV)
  ---------------------------------------------------
  alpha Z        PSCENC =       185.24551836
  Ewald energy   TEWEN  =     -2730.71446512
  -Hartree energ DENC   =     -1237.10018369
  -exchange      EXHF   =         0.00000000
  -V(xc)+E(xc)   XCENC  =       142.92580065
  PAW double counting   =      5054.91433044    -5408.91154022
  entropy T*S    EENTRO =        -0.00000000
  eigenvalues    EBANDS =       -68.44805230
  atomic energy  EATOM  =      4048.14435094
  Solvation  Ediel_sol  =         0.00000000
  ---------------------------------------------------
  free energy    TOTEN  =       -13.94424094 eV

  energy without entropy =      -13.94424094  energy(sigma->0) =      -13.94424094


--------------------------------------------------------------------------------------------------------




----------------------------------------- Iteration    1(  11)  ---------------------------------------


    POTLOK:  cpu time    0.0024: real time    0.0063
    SETDIJ:  cpu time    0.0008: real time    0.0034
     EDDAV:  cpu time    0.5806: real time    1.6019
       DOS:  cpu time    0.0007: real time    0.0208
    CHARGE:  cpu time    0.0126: real time    0.0267
    MIXING:  cpu time    0.0006: real time    0.0019
    --------------------------------------------
      LOOP:  cpu time    0.5988: real time    1.6637

 eigenvalue-minimisations  :  4200
 total energy-change (2. order) :-0.1418620E-03  (-0.1164979E-04)
 number of electron      36.0003797 magnetization 
 augmentation part       14.2520997 magnetization 

 Broyden mixing:
  rms(total) = 0.14592E-01    rms(broyden)= 0.14592E-01
  rms(prec ) = 0.17869E-01
  weight for this iteration     100.00

 eigenvalues of (default mixing * dielectric matrix)
  average eigenvalue GAMMA=   1.6196
  2.8043  2.4332  0.9531  0.9531  1.2869  1.2869

 Free energy of the ion-electron system (eV)
  ---------------------------------------------------
  alpha Z        PSCENC =       185.24551836
  Ewald energy   TEWEN  =     -2730.71446512
  -Hartree energ DENC   =     -1237.12402255
  -exchange      EXHF   =         0.00000000
  -V(xc)+E(xc)   XCENC  =       142.92772108
  PAW double counting   =      5030.50891960    -5384.40871647
  entropy T*S    EENTRO =        -0.00000000
  eigenvalues    EBANDS =       -68.52368865
  atomic energy  EATOM  =      4048.14435094
  Solvation  Ediel_sol  =         0.00000000
  ---------------------------------------------------
  free energy    TOTEN  =       -13.94438280 eV

  energy without entropy =      -13.94438280  energy(sigma->0) =      -13.94438280


--------------------------------------------------------------------------------------------------------




----------------------------------------- Iteration    1(  12)  ---------------------------------------


    POTLOK:  cpu time    0.0026: real time    0.0065
    SETDIJ:  cpu time    0.0008: real time    0.0038
     EDDAV:  cpu time    0.5133: real time    1.5571
       DOS:  cpu time    0.0007: real time    0.0248
    CHARGE:  cpu time    0.0133: real time    0.0220
    MIXING:  cpu time    0.0007: real time    0.0023
    --------------------------------------------
      LOOP:  cpu time    0.5324: real time    1.6189

 eigenvalue-minimisations  :  4032
 total energy-change (2. order) : 0.1214834E-03  (-0.5384271E-04)
 number of electron      36.0003797 magnetization 
 augmentation part       14.2498773 magnetization 

 Broyden mixing:
  rms(total) = 0.11267E-01    rms(broyden)= 0.11267E-01
  rms(prec ) = 0.11326E-01
  weight for this iteration     100.00

 eigenvalues of (default mixing * dielectric matrix)
  average eigenvalue GAMMA=   1.4119
  2.7071  2.4411  1.3805  1.0456  0.9495  0.9495  0.4103

 Free energy of the ion-electron system (eV)
  ---------------------------------------------------
  alpha Z        PSCENC =       185.24551836
  Ewald energy   TEWEN  =     -2730.71446512
  -Hartree energ DENC   =     -1237.16173994
  -exchange      EXHF   =         0.00000000
  -V(xc)+E(xc)   XCENC  =       142.92426318
  PAW double counting   =      5033.99176497    -5387.97048339
  entropy T*S    EENTRO =        -0.00000000
  eigenvalues    EBANDS =       -68.40347033
  atomic energy  EATOM  =      4048.14435094
  Solvation  Ediel_sol  =         0.00000000
  ---------------------------------------------------
  free energy    TOTEN  =       -13.94426132 eV

  energy without entropy =      -13.94426132  energy(sigma->0) =      -13.94426132


--------------------------------------------------------------------------------------------------------




----------------------------------------- Iteration    1(  13)  ---------------------------------------


    POTLOK:  cpu time    0.0024: real time    0.0060
    SETDIJ:  cpu time    0.0006: real time    0.0023
     EDDAV:  cpu time    0.4248: real time    1.2628
       DOS:  cpu time    0.0007: real time    0.0222
    CHARGE:  cpu time    0.0143: real time    0.0292
    MIXING:  cpu time    0.0007: real time    0.0024
    --------------------------------------------
      LOOP:  cpu time    0.4457: real time    1.3283

 eigenvalue-minimisations  :  3132
 total energy-change (2. order) :-0.8197922E-05  (-0.8215569E-05)
 number of electron      36.0003797 magnetization 
 augmentation part       14.2495700 magnetization 

 Broyden mixing:
  rms(total) = 0.76115E-02    rms(broyden)= 0.76115E-02
  rms(prec ) = 0.77342E-02
  weight for this iteration     100.00

 eigenvalues of (default mixing * dielectric matrix)
  average eigenvalue GAMMA=   1.2869
  2.7033  2.4421  1.3618  1.1644  0.9426  0.9426  0.4003  0.3380

 Free energy of the ion-electron system (eV)
  ---------------------------------------------------
  alpha Z        PSCENC =       185.24551836
  Ewald energy   TEWEN  =     -2730.71446512
  -Hartree energ DENC   =     -1237.16350506
  -exchange      EXHF   =         0.00000000
  -V(xc)+E(xc)   XCENC  =       142.92468909
  PAW double counting   =      5035.29187597    -5389.27475787
  entropy T*S    EENTRO =        -0.00000000
  eigenvalues    EBANDS =       -68.39797584
  atomic energy  EATOM  =      4048.14435094
  Solvation  Ediel_sol  =         0.00000000
  ---------------------------------------------------
  free energy    TOTEN  =       -13.94426951 eV

  energy without entropy =      -13.94426951  energy(sigma->0) =      -13.94426951


--------------------------------------------------------------------------------------------------------




----------------------------------------- Iteration    1(  14)  ---------------------------------------


    POTLOK:  cpu time    0.0025: real time    0.0077
    SETDIJ:  cpu time    0.0009: real time    0.0036
     EDDAV:  cpu time    0.3598: real time    1.1087
       DOS:  cpu time    0.0006: real time    0.0019
    --------------------------------------------
      LOOP:  cpu time    0.3719: real time    1.1569

 eigenvalue-minimisations  :  2532
 total energy-change (2. order) : 0.2810366E-06  (-0.7432648E-07)
 number of electron      36.0003797 magnetization 
 augmentation part       14.2495700 magnetization 

 Free energy of the ion-electron system (eV)
  ---------------------------------------------------
  alpha Z        PSCENC =       185.24551836
  Ewald energy   TEWEN  =     -2730.71446512
  -Hartree energ DENC   =     -1237.16822553
  -exchange      EXHF   =         0.00000000
  -V(xc)+E(xc)   XCENC  =       142.92522345
  PAW double counting   =      5035.82059341    -5389.80802732
  entropy T*S    EENTRO =        -0.00000000
  eigenvalues    EBANDS =       -68.38923743
  atomic energy  EATOM  =      4048.14435094
  Solvation  Ediel_sol  =         0.00000000
  ---------------------------------------------------
  free energy    TOTEN  =       -13.94426923 eV

  energy without entropy =      -13.94426923  energy(sigma->0) =      -13.94426923


--------------------------------------------------------------------------------------------------------




 the core state eigenenergies are
   1-  1s  -9516.5301  2s  -1150.2242  2p   -995.8618  3s   -121.1640  3p    -75.3227
     
   2-  1s  -9516.5301  2s  -1150.2242  2p   -995.8618  3s   -121.1640  3p    -75.3227
     
   3-  1s  -2394.1785  2s   -200.5355  2p   -145.2807
   4-  1s  -2394.1785  2s   -200.5355  2p   -145.2807
 
 E-fermi :   4.9100     XC(G=0): -11.1042     alpha+bet :-10.4148


 k-point     1 :       0.0000    0.0000    0.0000
  band No.  band energies     occupation 
      1     -10.5105      2.00000
      2      -8.4911      2.00000
      3      -3.3611      2.00000
      4      -2.9999      2.00000
      5      -2.9976      2.00000
      6      -2.9976      2.00000
      7      -2.4195      2.00000
      8      -2.4195      2.00000
      9      -2.1566      2.00000
     10      -2.1529      2.00000
     11      -2.0071      2.00000
     12      -1.8537      2.00000
     13      -0.9356      2.00000
     14       1.4695      2.00000
     15       1.4695      2.00000
     16       4.8110      2.00000
     17       4.8159      2.00000
     18       4.8159      2.00000
     19       7.3663      0.00000
     20       7.9740      0.00000
     21       8.4814      0.00000
     22      10.7796      0.00000
     23      10.7801      0.00000
     24      10.7801      0.00000

 k-point     2 :       0.1667    0.0000    0.0000
  band No.  band energies     occupation 
      1     -10.4039      2.00000
      2      -8.6683      2.00000
      3      -3.3456      2.00000
      4      -3.0287      2.00000
      5      -2.9705      2.00000
      6      -2.9705      2.00000
      7      -2.4760      2.00000
      8      -2.4760      2.00000
      9      -2.1731      2.00000
     10      -2.1431      2.00000
     11      -2.0600      2.00000
     12      -2.0169      2.00000
     13      -0.3870      2.00000
     14       1.6555      2.00000
     15       1.6555      2.00000
     16       4.2201      2.00000
     17       4.4938      2.00000
     18       4.4938      2.00000
     19       7.5133      0.00000
     20       8.6243      0.00000
     21       8.6671      0.00000
     22      10.3978      0.00000
     23      11.2135      0.00000
     24      11.2135      0.00000

 k-point     3 :       0.3333    0.0000    0.0000
  band No.  band energies     occupation 
      1     -10.0977      2.00000
      2      -9.1101      2.00000
      3      -3.2930      2.00000
      4      -3.1057      2.00000
      5      -2.8906      2.00000
      6      -2.8906      2.00000
      7      -2.6116      2.00000
      8      -2.6116      2.00000
      9      -2.2252      2.00000
     10      -2.2143      2.00000
     11      -2.1165      2.00000
     12      -2.0436      2.00000
     13       0.6713      2.00000
     14       2.1686      2.00000
     15       2.1686      2.00000
     16       3.0932      2.00000
     17       3.7495      2.00000
     18       3.7495      2.00000
     19       7.9493      0.00000
     20       9.2064      0.00000
     21       9.4055      0.00000
     22       9.8533      0.00000
     23      12.2981      0.00000
     24      12.2981      0.00000

 k-point     4 :       0.5000    0.0000    0.0000
  band No.  band energies     occupation 
      1      -9.6363      2.00000
      2      -9.6363      2.00000
      3      -3.2049      2.00000
      4      -3.2049      2.00000
      5      -2.7643      2.00000
      6      -2.7643      2.00000
      7      -2.7643      2.00000
      8      -2.7643      2.00000
      9      -2.2508      2.00000
     10      -2.2508      2.00000
     11      -2.0801      2.00000
     12      -2.0801      2.00000
     13       1.8749      2.00000
     14       1.8749      2.00000
     15       2.9087      2.00000
     16       2.9087      2.00000
     17       2.9087      2.00000
     18       2.9087      2.00000
     19       8.6385      0.00000
     20       8.6385      0.00000
     21       9.8892      0.00000
     22       9.8892      0.00000
     23      13.7335      0.00000
     24      13.7335      0.00000

 k-point     5 :       0.0000    0.1250    0.0000
  band No.  band energies     occupation 
      1     -10.3909      2.00000
      2      -8.4912      2.00000
      3      -3.2693      2.00000
      4      -3.0201      2.00000
      5      -2.9764      2.00000
      6      -2.9710      2.00000
      7      -2.4490      2.00000
      8      -2.4212      2.00000
      9      -2.1637      2.00000
     10      -2.1524      2.00000
     11      -2.0328      2.00000
     12      -1.7391      2.00000
     13      -1.0141      2.00000
     14       0.9177      2.00000
     15       1.6356      2.00000
     16       3.9362      2.00000
     17       4.4304      2.00000
     18       4.7462      2.00000
     19       7.7913      0.00000
     20       8.6136      0.00000
     21       9.1925      0.00000
     22      10.6996      0.00000
     23      10.9375      0.00000
     24      11.2595      0.00000

 k-point     6 :       0.1667    0.1250    0.0000
  band No.  band energies     occupation 
      1     -10.2882      2.00000
      2      -8.6525      2.00000
      3      -3.2595      2.00000
      4      -3.0330      2.00000
      5      -2.9573      2.00000
      6      -2.9531      2.00000
      7      -2.5045      2.00000
      8      -2.4880      2.00000
      9      -2.1670      2.00000
     10      -2.1523      2.00000
     11      -2.0350      2.00000
     12      -1.9820      2.00000
     13      -0.5153      2.00000
     14       1.1891      2.00000
     15       1.8088      2.00000
     16       3.2153      2.00000
     17       4.4577      2.00000
     18       4.5594      2.00000
     19       7.9562      0.00000
     20       8.8032      0.00000
     21       9.3474      0.00000
     22      10.9282      0.00000
     23      11.2555      0.00000
     24      11.2877      0.00000

 k-point     7 :       0.3333    0.1250    0.0000
  band No.  band energies     occupation 
      1      -9.9941      2.00000
      2      -9.0602      2.00000
      3      -3.2255      2.00000
      4      -3.0891      2.00000
      5      -2.8906      2.00000
      6      -2.8835      2.00000
      7      -2.6324      2.00000
      8      -2.6320      2.00000
      9      -2.2018      2.00000
     10      -2.1774      2.00000
     11      -2.1220      2.00000
     12      -2.0509      2.00000
     13       0.3187      2.00000
     14       1.9463      2.00000
     15       2.1940      2.00000
     16       2.2898      2.00000
     17       3.7745      2.00000
     18       3.9901      2.00000
     19       8.4323      0.00000
     20       9.4163      0.00000
     21       9.7993      0.00000
     22      10.4009      0.00000
     23      12.0234      0.00000
     24      12.1657      0.00000

 k-point     8 :       0.5000    0.1250    0.0000
  band No.  band energies     occupation 
      1      -9.5548      2.00000
      2      -9.5548      2.00000
      3      -3.1636      2.00000
      4      -3.1636      2.00000
      5      -2.7766      2.00000
      6      -2.7766      2.00000
      7      -2.7715      2.00000
      8      -2.7715      2.00000
      9      -2.2257      2.00000
     10      -2.2257      2.00000
     11      -2.0835      2.00000
     12      -2.0835      2.00000
     13       1.2193      2.00000
     14       1.2193      2.00000
     15       2.9825      2.00000
     16       2.9825      2.00000
     17       2.9871      2.00000
     18       2.9871      2.00000
     19       9.1138      0.00000
     20       9.1138      0.00000
     21      10.3381      0.00000
     22      10.3381      0.00000
     23      12.4648      0.00000
     24      12.4648      0.00000

 k-point     9 :       0.0000    0.2500    0.0000
  band No.  band energies     occupation 
      1     -10.0539      2.00000
      2      -8.5301      2.00000
      3      -3.0690      2.00000
      4      -3.0601      2.00000
      5      -2.9177      2.00000
      6      -2.9047      2.00000
      7      -2.5280      2.00000
      8      -2.3557      2.00000
      9      -2.1869      2.00000
     10      -2.1347      2.00000
     11      -2.0902      2.00000
     12      -1.5722      2.00000
     13      -1.2888      2.00000
     14       0.2475      2.00000
     15       2.0904      2.00000
     16       2.4329      2.00000
     17       3.4376      2.00000
     18       4.5104      2.00000
     19       8.3522      0.00000
     20       9.5201      0.00000
     21      10.7808      0.00000
     22      11.1199      0.00000
     23      11.3734      0.00000
     24      11.9780      0.00000

 k-point    10 :       0.1667    0.2500    0.0000
  band No.  band energies     occupation 
      1      -9.9643      2.00000
      2      -8.6455      2.00000
      3      -3.0596      2.00000
      4      -3.0563      2.00000
      5      -2.9054      2.00000
      6      -2.9000      2.00000
      7      -2.5780      2.00000
      8      -2.4501      2.00000
      9      -2.1707      2.00000
     10      -2.1449      2.00000
     11      -2.0778      2.00000
     12      -1.8179      2.00000
     13      -1.1203      2.00000
     14       0.8211      2.00000
     15       1.7273      2.00000
     16       2.2294      2.00000
     17       3.9320      2.00000
     18       4.3115      2.00000
     19       8.5246      0.00000
     20       8.9797      0.00000
     21      11.1656      0.00000
     22      11.4675      0.00000
     23      11.5031      0.00000
     24      12.0239      0.00000

 k-point    11 :       0.3333    0.2500    0.0000
  band No.  band energies     occupation 
      1      -9.7113      2.00000
      2      -8.9510      2.00000
      3      -3.0485      2.00000
      4      -3.0446      2.00000
      5      -2.8733      2.00000
      6      -2.8646      2.00000
      7      -2.6847      2.00000
      8      -2.6428      2.00000
      9      -2.1670      2.00000
     10      -2.1313      2.00000
     11      -2.0790      2.00000
     12      -2.0695      2.00000
     13      -0.6927      2.00000
     14       0.7622      2.00000
     15       1.9703      2.00000
     16       2.6198      2.00000
     17       3.8069      2.00000
     18       3.9843      2.00000
     19       8.8703      0.00000
     20       8.9852      0.00000
     21      11.1526      0.00000
     22      11.4072      0.00000
     23      11.8040      0.00000
     24      12.6441      0.00000

 k-point    12 :       0.5000    0.2500    0.0000
  band No.  band energies     occupation 
      1      -9.3444      2.00000
      2      -9.3444      2.00000
      3      -3.0422      2.00000
      4      -3.0422      2.00000
      5      -2.7959      2.00000
      6      -2.7959      2.00000
      7      -2.7895      2.00000
      8      -2.7895      2.00000
      9      -2.1681      2.00000
     10      -2.1681      2.00000
     11      -2.0901      2.00000
     12      -2.0901      2.00000
     13      -0.0612      2.00000
     14      -0.0612      2.00000
     15       3.1660      2.00000
     16       3.1660      2.00000
     17       3.1860      2.00000
     18       3.1860      2.00000
     19       9.2730      0.00000
     20       9.2730      0.00000
     21      10.9704      0.00000
     22      10.9704      0.00000
     23      12.4348      0.00000
     24      12.4348      0.00000

 k-point    13 :       0.0000    0.3750    0.0000
  band No.  band energies     occupation 
      1      -9.5707      2.00000
      2      -8.7018      2.00000
      3      -3.0362      2.00000
      4      -2.9181      2.00000
      5      -2.8509      2.00000
      6      -2.8338      2.00000
      7      -2.6313      2.00000
      8      -2.3544      2.00000
      9      -2.2013      2.00000
     10      -2.1486      2.00000
     11      -2.0963      2.00000
     12      -2.0632      2.00000
     13      -0.8836      2.00000
     14       0.3636      2.00000
     15       1.0378      2.00000
     16       2.2049      2.00000
     17       2.7328      2.00000
     18       4.0663      2.00000
     19       9.0486      0.00000
     20      10.1648      0.00000
     21      11.3510      0.00000
     22      11.7512      0.00000
     23      11.9855      0.00000
     24      12.3357      0.00000

 k-point    14 :       0.1667    0.3750    0.0000
  band No.  band energies     occupation 
      1      -9.5081      2.00000
      2      -8.7514      2.00000
      3      -3.0188      2.00000
      4      -2.9028      2.00000
      5      -2.8465      2.00000
      6      -2.8380      2.00000
      7      -2.6699      2.00000
      8      -2.4128      2.00000
      9      -2.1791      2.00000
     10      -2.1257      2.00000
     11      -2.1032      2.00000
     12      -1.9668      2.00000
     13      -1.3980      2.00000
     14       0.3461      2.00000
     15       1.1376      2.00000
     16       2.8203      2.00000
     17       2.9108      2.00000
     18       3.9806      2.00000
     19       9.1788      0.00000
     20       9.3676      0.00000
     21      11.4225      0.00000
     22      11.6102      0.00000
     23      11.7277      0.00000
     24      12.7146      0.00000

 k-point    15 :       0.3333    0.3750    0.0000
  band No.  band energies     occupation 
      1      -9.3381      2.00000
      2      -8.8963      2.00000
      3      -2.9506      2.00000
      4      -2.8713      2.00000
      5      -2.8382      2.00000
      6      -2.8370      2.00000
      7      -2.7462      2.00000
      8      -2.5603      2.00000
      9      -2.1313      2.00000
     10      -2.1190      2.00000
     11      -2.0938      2.00000
     12      -1.9745      2.00000
     13      -1.6437      2.00000
     14      -0.5423      2.00000
     15       2.3653      2.00000
     16       3.0633      2.00000
     17       3.6079      2.00000
     18       3.7393      2.00000
     19       8.6007      0.00000
     20       9.2874      0.00000
[...]
  --------------------------------------------------------------------------------------
       0.000       0.000       0.000
       0.000       0.000       0.000
      -0.000       0.000       0.000

 plasma frequency squared (from intraband transitions)
  --------------------------------------------------------------------------------------


 plasma frequency squared (from interband transitions, int dw w eps(2)(w)
  --------------------------------------------------------------------------------------
     281.895       0.000      -0.000
       0.000     282.150       0.000
      -0.000       0.000     282.150
  --------------------------------------------------------------------------------------
 plasma frequency squared  (valence only):     813.182

  frequency dependent IMAGINARY DIELECTRIC FUNCTION (independent particle, no local field effects)
     E(ev)      X         Y         Z        XY        YZ        ZX
  --------------------------------------------------------------------------------------
    0.000000    0.000000    0.000000    0.000000    0.000000    0.000000    0.000000
    0.339926    0.008593    0.008791    0.008791   -0.000000    0.000000   -0.000000
    0.679852    0.017556    0.017971    0.017971   -0.000000    0.000000   -0.000000
    1.019778    0.027314    0.027993    0.027993   -0.000000    0.000000   -0.000000
    1.359704    0.038429    0.039456    0.039456   -0.000000    0.000000   -0.000000
    1.699630    0.051752    0.053277    0.053277   -0.000000    0.000000   -0.000000
    2.039556    0.068821    0.071127    0.071127   -0.000000    0.000000   -0.000000
    2.379482    0.093305    0.096976    0.096976   -0.000000    0.000000   -0.000000
    2.719408    0.140525    0.147036    0.147036   -0.000000    0.000000   -0.000000
    3.059334    0.466113    0.483632    0.483632   -0.000000    0.000000   -0.000000
    3.399260    0.311120    0.349534    0.349534   -0.000000    0.000000   -0.000000
    3.739186    0.387247    0.753726    0.753726   -0.000000    0.000000   -0.000000
    4.079112    1.476858    1.420446    1.420446   -0.000000    0.000000   -0.000000
    4.419038    1.641085    2.267938    2.267938   -0.000000    0.000000   -0.000000
    4.758964    3.881601    3.917105    3.917105   -0.000000    0.000000   -0.000000
    5.098890    4.872168    4.924834    4.924834   -0.000000    0.000000   -0.000000
    5.438816    6.596381    7.553423    7.553423   -0.000000    0.000000   -0.000000
    5.778742   12.997726    9.505147    9.505147    0.000000    0.000000    0.000000
    6.118668   14.004570   20.232106   20.232106    0.000000    0.000000   -0.000000
    6.458594   20.993505   19.308486   19.308486    0.000000    0.000000    0.000000
    6.798520   14.946933    9.820745    9.820745   -0.000000    0.000000    0.000000
    7.138446   10.129048    8.265449    8.265449   -0.000000    0.000000   -0.000000
    7.478372   10.794201   13.240634   13.240634    0.000000    0.000000   -0.000000
    7.818298   10.946586   13.305624   13.305624   -0.000000    0.000000   -0.000000
    8.158224    8.077879    9.216370    9.216370    0.000000    0.000000   -0.000000
    8.498150    8.855508    8.366325    8.366325    0.000000    0.000000   -0.000000
    8.838076    4.867179    5.165645    5.165645    0.000000    0.000000   -0.000000
    9.178002    4.556650    4.917509    4.917509    0.000000    0.000000    0.000000
    9.517928    4.177273    3.513013    3.513013    0.000000    0.000000   -0.000000
    9.857854    2.178674    2.625706    2.625706    0.000000    0.000000   -0.000000
   10.197780    2.259926    1.725351    1.725351    0.000000    0.000000    0.000000
   10.537706    1.808244    1.647687    1.647687    0.000000    0.000000    0.000000
   10.877632    1.680646    1.728690    1.728690    0.000000    0.000000    0.000000
   11.217558    1.429434    1.688719    1.688719   -0.000000    0.000000   -0.000000
   11.557484    1.676457    1.769014    1.769014    0.000000    0.000000    0.000000
   11.897410    1.699556    1.855457    1.855457    0.000000    0.000000    0.000000
   12.237336    1.725837    1.789139    1.789139    0.000000    0.000000    0.000000
   12.577262    1.576694    1.552676    1.552676    0.000000    0.000000    0.000000
   12.917188    1.140664    1.056377    1.056377    0.000000    0.000000   -0.000000
   13.257114    0.878100    0.954459    0.954459   -0.000000    0.000000   -0.000000
   13.597040    0.978226    1.010200    1.010200   -0.000000    0.000000    0.000000
   13.936966    0.948536    0.855696    0.855696    0.000000    0.000000   -0.000000
   14.276892    0.860520    0.824604    0.824604    0.000000    0.000000    0.000000
   14.616818    0.674527    0.673266    0.673266    0.000000    0.000000   -0.000000
   14.956744    0.536287    0.580972    0.580972    0.000000    0.000000    0.000000
   15.296670    0.369788    0.343208    0.343208    0.000000    0.000000   -0.000000
   15.636596    0.338150    0.253903    0.253903    0.000000    0.000000   -0.000000
   15.976522    0.191049    0.145712    0.145712    0.000000    0.000000    0.000000
   16.316448    0.107673    0.135833    0.135833   -0.000000    0.000000    0.000000
   16.656374    0.068998    0.077565    0.077565    0.000000    0.000000    0.000000
   16.996300    0.061087    0.060208    0.060208    0.000000    0.000000   -0.000000
   17.336226    0.067776    0.054497    0.054497    0.000000    0.000000   -0.000000
   17.676152    0.064161    0.056204    0.056204    0.000000    0.000000    0.000000
   18.016078    0.077840    0.051971    0.051971    0.000000    0.000000    0.000000
   18.356004    0.044540    0.041310    0.041310    0.000000    0.000000   -0.000000
   18.695931    0.049543    0.048864    0.048864    0.000000    0.000000   -0.000000
   19.035857    0.026074    0.027806    0.027806    0.000000    0.000000   -0.000000
   19.375783    0.027221    0.034607    0.034607   -0.000000    0.000000   -0.000000
   19.715709    0.030125    0.024491    0.024491    0.000000    0.000000   -0.000000
   20.055635    0.024522    0.024687    0.024687    0.000000    0.000000   -0.000000
   20.395561    0.021949    0.021815    0.021815    0.000000    0.000000   -0.000000
   20.735487    0.019126    0.018874    0.018874    0.000000    0.000000   -0.000000
   21.075413    0.024767    0.022821    0.022821    0.000000    0.000000    0.000000
   21.415339    0.025122    0.022679    0.022679   -0.000000    0.000000    0.000000
   21.755265    0.015738    0.018432    0.018432   -0.000000    0.000000   -0.000000
   22.095191    0.018205    0.017032    0.017032    0.000000    0.000000   -0.000000
   22.435117    0.010751    0.011402    0.011402   -0.000000    0.000000   -0.000000
   22.775043    0.008309    0.009451    0.009451   -0.000000    0.000000   -0.000000
   23.114969    0.007209    0.008314    0.008314    0.000000    0.000000   -0.000000
   23.454895    0.006566    0.007034    0.007034    0.000000    0.000000   -0.000000
   23.794821    0.007181    0.008527    0.008527   -0.000000    0.000000   -0.000000
   24.134747    0.005976    0.007248    0.007248    0.000000    0.000000   -0.000000
   24.474673    0.005643    0.006005    0.006005    0.000000    0.000000   -0.000000
   24.814599    0.005219    0.006121    0.006121    0.000000    0.000000   -0.000000
   25.154525    0.004791    0.005071    0.005071    0.000000    0.000000   -0.000000
   25.494451    0.004530    0.004615    0.004615    0.000000    0.000000   -0.000000
   25.834377    0.004302    0.004392    0.004392    0.000000    0.000000   -0.000000
   26.174303    0.004094    0.004709    0.004709    0.000000    0.000000   -0.000000
   26.514229    0.003903    0.004097    0.004097    0.000000    0.000000   -0.000000
   26.854155    0.003724    0.003768    0.003768    0.000000    0.000000   -0.000000
   27.194081    0.003558    0.003579    0.003579    0.000000    0.000000   -0.000000
   27.534007    0.003403    0.003415    0.003415    0.000000    0.000000   -0.000000
   27.873933    0.003257    0.003265    0.003265    0.000000    0.000000   -0.000000
   28.213859    0.003120    0.003126    0.003126    0.000000    0.000000   -0.000000
   28.553785    0.002991    0.002996    0.002996    0.000000    0.000000   -0.000000
   28.893711    0.002869    0.002873    0.002873    0.000000    0.000000   -0.000000
   29.233637    0.002755    0.002758    0.002758    0.000000    0.000000   -0.000000
   29.573563    0.002646    0.002649    0.002649    0.000000    0.000000   -0.000000
   29.913489    0.002544    0.002547    0.002547    0.000000    0.000000   -0.000000
   30.253415    0.002447    0.002449    0.002449    0.000000    0.000000   -0.000000
   30.593341    0.002355    0.002357    0.002357    0.000000    0.000000   -0.000000
   30.933267    0.002268    0.002270    0.002270    0.000000    0.000000   -0.000000
   31.273193    0.002186    0.002187    0.002187    0.000000    0.000000   -0.000000
   31.613119    0.002107    0.002109    0.002109    0.000000    0.000000   -0.000000
   31.953045    0.002032    0.002034    0.002034    0.000000    0.000000   -0.000000
   32.292971    0.001961    0.001963    0.001963    0.000000    0.000000   -0.000000
   32.632897    0.001894    0.001895    0.001895    0.000000    0.000000   -0.000000
   32.972823    0.001829    0.001830    0.001830    0.000000    0.000000   -0.000000
   33.312749    0.001767    0.001769    0.001769    0.000000    0.000000   -0.000000
   33.652675    0.001709    0.001710    0.001710    0.000000    0.000000   -0.000000

  frequency dependent      REAL DIELECTRIC FUNCTION (independent particle, no local field effects)
     E(ev)      X         Y         Z        XY        YZ        ZX
  --------------------------------------------------------------------------------------
    0.000000    6.255613    6.290452    6.290452   -0.000000    0.000000   -0.000000
    0.339926    6.270145    6.305319    6.305319   -0.000000    0.000000   -0.000000
    0.679852    6.314373    6.350575    6.350575   -0.000000    0.000000   -0.000000
    1.019778    6.390238    6.428280    6.428280   -0.000000    0.000000   -0.000000
    1.359704    6.501320    6.542222    6.542222   -0.000000    0.000000   -0.000000
    1.699630    6.653528    6.698692    6.698692   -0.000000    0.000000   -0.000000
    2.039556    6.856572    6.908097    6.908097   -0.000000    0.000000   -0.000000
    2.379482    7.127956    7.189313    7.189313   -0.000000    0.000000   -0.000000
    2.719408    7.508510    7.586244    7.586244   -0.000000    0.000000   -0.000000
    3.059334    8.122533    8.230036    8.230036   -0.000000    0.000000   -0.000000
    3.399260    8.159328    8.338537    8.338537   -0.000000    0.000000   -0.000000
    3.739186    9.204051    9.637264    9.637264   -0.000000    0.000000   -0.000000
    4.079112   11.084912   10.274736   10.274736   -0.000000    0.000000   -0.000000
    4.419038    9.750463   10.029437   10.029437   -0.000000    0.000000   -0.000000
    4.758964   13.497512   12.160634   12.160634   -0.000000    0.000000   -0.000000
    5.098890    9.126379    9.938401    9.938401    0.000000    0.000000   -0.000000
    5.438816   14.640994   12.525108   12.525108    0.000000    0.000000   -0.000000
    5.778742   15.589479   14.863317   14.863317    0.000000    0.000000   -0.000000
    6.118668   12.770296   15.757955   15.757955    0.000000    0.000000   -0.000000
    6.458594    2.156388   -5.020573   -5.020573    0.000000    0.000000    0.000000
    6.798520   -0.950377   -0.418549   -0.418549   -0.000000    0.000000    0.000000
    7.138446   -1.735975    1.362907    1.362907    0.000000    0.000000   -0.000000
    7.478372   -1.384695    4.254177    4.254177    0.000000    0.000000   -0.000000
    7.818298   -4.182575   -7.053640   -7.053640    0.000000    0.000000    0.000000
    8.158224   -5.265848   -3.403284   -3.403284   -0.000000    0.000000    0.000000
    8.498150   -4.524774   -5.425834   -5.425834   -0.000000    0.000000   -0.000000
    8.838076   -6.224367   -6.223626   -6.223626    0.000000    0.000000    0.000000
    9.178002   -4.169252   -5.165546   -5.165546    0.000000    0.000000    0.000000
    9.517928   -4.231107   -4.383962   -4.383962    0.000000    0.000000    0.000000
    9.857854   -3.779437   -3.614086   -3.614086    0.000000    0.000000    0.000000
   10.197780   -3.088079   -3.212139   -3.212139   -0.000000    0.000000    0.000000
   10.537706   -2.946935   -2.504177   -2.504177   -0.000000    0.000000    0.000000
   10.877632   -2.570639   -2.177132   -2.177132   -0.000000    0.000000   -0.000000
   11.217558   -1.600277   -1.650480   -1.650480   -0.000000    0.000000    0.000000
   11.557484   -1.386721   -1.470845   -1.470845    0.000000    0.000000    0.000000
   11.897410   -1.566746   -1.573611   -1.573611   -0.000000    0.000000    0.000000
   12.237336   -1.641560   -1.779968   -1.779968   -0.000000    0.000000   -0.000000
   12.577262   -1.649448   -1.801083   -1.801083   -0.000000    0.000000   -0.000000
   12.917188   -1.823503   -1.810502   -1.810502   -0.000000    0.000000    0.000000
   13.257114   -1.400266   -1.432995   -1.432995   -0.000000    0.000000    0.000000
   13.597040   -1.185173   -1.265912   -1.265912   -0.000000    0.000000    0.000000
   13.936966   -1.336080   -1.297987   -1.297987    0.000000    0.000000    0.000000
   14.276892   -1.246592   -1.131674   -1.131674   -0.000000    0.000000   -0.000000
   14.616818   -1.183023   -1.180250   -1.180250   -0.000000    0.000000    0.000000
   14.956744   -1.172304   -1.210563   -1.210563   -0.000000    0.000000    0.000000
   15.296670   -1.022389   -1.076995   -1.076995   -0.000000    0.000000    0.000000
   15.636596   -0.891427   -0.915252   -0.915252   -0.000000    0.000000    0.000000
   15.976522   -0.808007   -0.788294   -0.788294   -0.000000    0.000000    0.000000
   16.316448   -0.643779   -0.612080   -0.612080   -0.000000    0.000000    0.000000
   16.656374   -0.516424   -0.534959   -0.534959   -0.000000    0.000000    0.000000
   16.996300   -0.410927   -0.419737   -0.419737   -0.000000    0.000000    0.000000
   17.336226   -0.310012   -0.313653   -0.313653   -0.000000    0.000000    0.000000
   17.676152   -0.233216   -0.245559   -0.245559   -0.000000    0.000000    0.000000
   18.016078   -0.207835   -0.187090   -0.187090   -0.000000    0.000000    0.000000
   18.356004   -0.124791   -0.115151   -0.115151   -0.000000    0.000000    0.000000
   18.695931   -0.080194   -0.071415   -0.071415   -0.000000    0.000000    0.000000
   19.035857   -0.026581   -0.021716   -0.021716   -0.000000    0.000000    0.000000
   19.375783    0.026836    0.029165    0.029165   -0.000000    0.000000    0.000000
   19.715709    0.076509    0.076200    0.076200   -0.000000    0.000000    0.000000
   20.055635    0.115652    0.116775    0.116775   -0.000000    0.000000    0.000000
   20.395561    0.150028    0.150689    0.150689   -0.000000    0.000000    0.000000
   20.735487    0.192331    0.193314    0.193314   -0.000000    0.000000    0.000000
   21.075413    0.221296    0.221263    0.221263   -0.000000    0.000000    0.000000
   21.415339    0.247939    0.250808    0.250808   -0.000000    0.000000    0.000000
   21.755265    0.271506    0.275599    0.275599   -0.000000    0.000000    0.000000
   22.095191    0.302193    0.300444    0.300444   -0.000000    0.000000    0.000000
   22.435117    0.322457    0.323701    0.323701   -0.000000    0.000000    0.000000
   22.775043    0.350298    0.350664    0.350664   -0.000000    0.000000    0.000000
   23.114969    0.373748    0.374927    0.374927   -0.000000    0.000000    0.000000
   23.454895    0.396734    0.397344    0.397344   -0.000000    0.000000    0.000000
   23.794821    0.417271    0.418546    0.418546   -0.000000    0.000000    0.000000
   24.134747    0.436186    0.434574    0.434574   -0.000000    0.000000    0.000000
   24.474673    0.455305    0.454997    0.454997   -0.000000    0.000000    0.000000
   24.814599    0.472131    0.472273    0.472273   -0.000000    0.000000    0.000000
   25.154525    0.488960    0.488035    0.488035   -0.000000    0.000000    0.000000
   25.494451    0.504782    0.504292    0.504292   -0.000000    0.000000    0.000000
   25.834377    0.519783    0.519550    0.519550   -0.000000    0.000000    0.000000
   26.174303    0.534047    0.534240    0.534240   -0.000000    0.000000    0.000000
   26.514229    0.547634    0.546835    0.546835   -0.000000    0.000000    0.000000
   26.854155    0.560592    0.560057    0.560057   -0.000000    0.000000    0.000000
   27.194081    0.572966    0.572529    0.572529   -0.000000    0.000000    0.000000
   27.534007    0.584792    0.584409    0.584409   -0.000000    0.000000    0.000000
   27.873933    0.596108    0.595759    0.595759   -0.000000    0.000000    0.000000
   28.213859    0.606942    0.606619    0.606619   -0.000000    0.000000    0.000000
   28.553785    0.617324    0.617020    0.617020   -0.000000    0.000000    0.000000
   28.893711    0.627282    0.626993    0.626993   -0.000000    0.000000    0.000000
   29.233637    0.636838    0.636562    0.636562   -0.000000    0.000000    0.000000
   29.573563    0.646015    0.645750    0.645750   -0.000000    0.000000    0.000000
   29.913489    0.654835    0.654579    0.654579   -0.000000    0.000000    0.000000
   30.253415    0.663316    0.663068    0.663068   -0.000000    0.000000    0.000000
   30.593341    0.671477    0.671235    0.671235   -0.000000    0.000000    0.000000
   30.933267    0.679333    0.679098    0.679098   -0.000000    0.000000    0.000000
   31.273193    0.686901    0.686672    0.686672   -0.000000    0.000000    0.000000
   31.613119    0.694195    0.693972    0.693972   -0.000000    0.000000    0.000000
   31.953045    0.701229    0.701011    0.701011   -0.000000    0.000000    0.000000
   32.292971    0.708015    0.707801    0.707801   -0.000000    0.000000    0.000000
   32.632897    0.714565    0.714356    0.714356   -0.000000    0.000000    0.000000
   32.972823    0.720891    0.720686    0.720686   -0.000000    0.000000    0.000000
   33.312749    0.727002    0.726802    0.726802   -0.000000    0.000000    0.000000
   33.652675    0.732910    0.732713    0.732713   -0.000000    0.000000    0.000000
 
 The outermost node in the dielectric function lies at epsilon=  19.2


--------------------------------------------------------------------------------------------------------


    OPTICS:  cpu time    0.4538: real time    1.3548
    4ORBIT:  cpu time    0.0000: real time    0.0000
 


 total charge     
 
# of ion     s       p       d       tot
----------------------------------------
  1        0.619   0.757   9.846  11.222
  2        0.619   0.757   9.846  11.222
  3        1.305   2.559   0.000   3.865
  4        1.305   2.559   0.000   3.865
------------------------------------------------
tot        3.850   6.632  19.692  30.174
 

 total amount of memory used by VASP on root node    64282. kBytes
========================================================================

   base      :      30000. kBytes
   nonl-proj :      27264. kBytes
   fftplans  :        137. kBytes
   grid      :        576. kBytes
   one-center:         62. kBytes
   wavefun   :       6243. kBytes
 
  
  
 General timing and accounting informations for this job:
 ========================================================
  
                  Total CPU time used (sec):       10.804
                            User time (sec):        9.421
                          System time (sec):        1.383
                         Elapsed time (sec):       34.408
  
                   Maximum memory used (kb):    86376448.
                   Average memory used (kb):           0.
  
                          Minor page faults:        27090
                          Major page faults:          571
                 Voluntary context switches:           32
