 vasp.5.4.1 24Jun15 (build Sep 15 2015 10:29:54) complex                        
  
 executed on           IFC91_ompi date 2017.08.21  15:04:25
 running on   24 total cores
 distrk:  each k-point on    6 cores,    4 groups
 distr:  one band on NCORES_PER_BAND=   1 cores,    6 groups


--------------------------------------------------------------------------------------------------------


 INCAR:
 POTCAR:    PAW_PBE Zn 06Sep2000                  
 POTCAR:    PAW_PBE O 08Apr2002                   

 ----------------------------------------------------------------------------- 
|                                                                             |
|           W    W    AA    RRRRR   N    N  II  N    N   GGGG   !!!           |
|           W    W   A  A   R    R  NN   N  II  NN   N  G    G  !!!           |
|           W    W  A    A  R    R  N N  N  II  N N  N  G       !!!           |
|           W WW W  AAAAAA  RRRRR   N  N N  II  N  N N  G  GGG   !            |
|           WW  WW  A    A  R   R   N   NN  II  N   NN  G    G                |
|           W    W  A    A  R    R  N    N  II  N    N   GGGG   !!!           |
|                                                                             |
|      For optimal performance we recommend to set                            |
|        NCORE= 4 - approx SQRT( number of cores)                             |
|      NCORE specifies how many cores store one orbital (NPAR=cpu/NCORE).     |
|      This setting can  greatly improve the performance of VASP for DFT.     |
|      The default, NPAR=number of cores might be grossly inefficient         |
|      on modern multi-core architectures or massively parallel machines.     |
|      Do your own testing !!!!                                               |
|      Unfortunately you need to use the default for GW and RPA calculations. |
|      (for HF NCORE is supported but not extensively tested yet)             |
|                                                                             |
 ----------------------------------------------------------------------------- 


 ----------------------------------------------------------------------------- 
|                                                                             |
|           W    W    AA    RRRRR   N    N  II  N    N   GGGG   !!!           |
|           W    W   A  A   R    R  NN   N  II  NN   N  G    G  !!!           |
|           W    W  A    A  R    R  N N  N  II  N N  N  G       !!!           |
|           W WW W  AAAAAA  RRRRR   N  N N  II  N  N N  G  GGG   !            |
|           WW  WW  A    A  R   R   N   NN  II  N   NN  G    G                |
|           W    W  A    A  R    R  N    N  II  N    N   GGGG   !!!           |
|                                                                             |
|      You have enabled k-point parallelism (KPAR>1).                         |
|      This developmental code was originally  written by Paul Kent at ORNL,  |
|      and carefully double checked in Vienna.                                |
|      GW as well as linear response parallelism added by Martijn Marsman     |
|      and Georg Kresse.                                                      |
|      Carefully verify results versus KPAR=1.                                |
|      Report problems to Paul Kent and Vienna.                               |
|                                                                             |
 ----------------------------------------------------------------------------- 

 POTCAR:    PAW_PBE Zn 06Sep2000                  
   VRHFIN =Zn: d10 p2                                                           
   LEXCH  = PE                                                                  
   EATOM  =  1748.8345 eV,  128.5357 Ry                                         
                                                                                
   TITEL  = PAW_PBE Zn 06Sep2000                                                
   LULTRA =        F    use ultrasoft PP ?                                      
   IUNSCR =        1    unscreen: 0-lin 1-nonlin 2-no                           
   RPACOR =    2.000    partial core radius                                     
   POMASS =   65.390; ZVAL   =   12.000    mass and valenz                      
   RCORE  =    2.300    outmost cutoff radius                                   
   RWIGS  =    2.400; RWIGS  =    1.270    wigner-seitz radius (au A)           
   ENMAX  =  276.723; ENMIN  =  207.542 eV                                      
   RCLOC  =    1.828    cutoff for local pot                                    
   LCOR   =        T    correct aug charges                                     
   LPAW   =        T    paw PP                                                  
   EAUG   =  575.892                                                            
   DEXC   =    0.000                                                            
   RMAX   =    2.347    core radius for proj-oper                               
   RAUG   =    1.300    factor for augmentation sphere                          
   RDEP   =    2.324    radius for radial grids                                 
   RDEPT  =    1.788    core radius for aug-charge                              
                                                                                
   Atomic configuration                                                         
    9 entries                                                                   
     n  l   j            E        occ.                                          
     1  0  0.50     -9524.6913   2.0000                                         
     2  0  0.50     -1158.1882   2.0000                                         
     2  1  1.50     -1003.8506   6.0000                                         
     3  0  0.50      -129.2194   2.0000                                         
     3  1  1.50       -83.3890   6.0000                                         
     3  2  2.50       -10.1410  10.0000                                         
     4  0  0.50        -5.9785   2.0000                                         
     4  1  0.50        -4.0817   0.0000                                         
     4  3  2.50        -1.3606   0.0000                                         
   Description                                                                  
     l       E           TYP  RCUT    TYP  RCUT                                 
     2    -10.1410010     23  2.300                                             
     2    -11.5015836     23  2.300                                             
     0     -5.9785163     23  2.300                                             
     0      1.1858015     23  2.300                                             
     1     -2.7211652     23  2.300                                             
     1     13.2444212     23  2.300                                             
  local pseudopotential read in
  partial core-charges read in
  partial kinetic energy density read in
  atomic valenz-charges read in
  non local Contribution for L=           2  read in
    real space projection operators read in
  non local Contribution for L=           2  read in
    real space projection operators read in
  non local Contribution for L=           0  read in
    real space projection operators read in
  non local Contribution for L=           0  read in
    real space projection operators read in
  non local Contribution for L=           1  read in
    real space projection operators read in
  non local Contribution for L=           1  read in
    real space projection operators read in
    PAW grid and wavefunctions read in
 
   number of l-projection  operators is LMAX  =           6
   number of lm-projection operators is LMMAX =          18
 
 POTCAR:    PAW_PBE O 08Apr2002                   
   VRHFIN =O: s2p4                                                              
   LEXCH  = PE                                                                  
   EATOM  =   432.3788 eV,   31.7789 Ry                                         
                                                                                
   TITEL  = PAW_PBE O 08Apr2002                                                 
   LULTRA =        F    use ultrasoft PP ?                                      
   IUNSCR =        1    unscreen: 0-lin 1-nonlin 2-no                           
   RPACOR =    1.200    partial core radius                                     
   POMASS =   16.000; ZVAL   =    6.000    mass and valenz                      
   RCORE  =    1.520    outmost cutoff radius                                   
   RWIGS  =    1.550; RWIGS  =    0.820    wigner-seitz radius (au A)           
   ENMAX  =  400.000; ENMIN  =  300.000 eV                                      
   ICORE  =        2    local potential                                         
   LCOR   =        T    correct aug charges                                     
   LPAW   =        T    paw PP                                                  
   EAUG   =  605.392                                                            
   DEXC   =    0.000                                                            
   RMAX   =    1.553    core radius for proj-oper                               
   RAUG   =    1.300    factor for augmentation sphere                          
   RDEP   =    1.550    radius for radial grids                                 
   RDEPT  =    1.329    core radius for aug-charge                              
                                                                                
   Atomic configuration                                                         
    4 entries                                                                   
     n  l   j            E        occ.                                          
     1  0  0.50      -514.6923   2.0000                                         
     2  0  0.50       -23.9615   2.0000                                         
     2  1  0.50        -9.0305   4.0000                                         
     3  2  1.50        -9.5241   0.0000                                         
   Description                                                                  
     l       E           TYP  RCUT    TYP  RCUT                                 
     0    -23.9615318     23  1.200                                             
     0     -9.5240782     23  1.200                                             
     1     -9.0304911     23  1.520                                             
     1      8.1634956     23  1.520                                             
     2     -9.5240782      7  1.500                                             
  local pseudopotential read in
  partial core-charges read in
  partial kinetic energy density read in
  kinetic energy density of atom read in
  atomic valenz-charges read in
  non local Contribution for L=           0  read in
    real space projection operators read in
  non local Contribution for L=           0  read in
    real space projection operators read in
  non local Contribution for L=           1  read in
    real space projection operators read in
  non local Contribution for L=           1  read in
    real space projection operators read in
    PAW grid and wavefunctions read in
 
   number of l-projection  operators is LMAX  =           4
   number of lm-projection operators is LMMAX =           8
 

 ----------------------------------------------------------------------------- 
|                                                                             |
|  ADVICE TO THIS USER RUNNING 'VASP/VAMP'   (HEAR YOUR MASTER'S VOICE ...):  |
|                                                                             |
|      You enforced a specific xc-type in the INCAR file,                     |
|      a different type was found on the POTCAR file                          |
|          I HOPE YOU KNOW, WHAT YOU ARE  DOING                               |
|                                                                             |
 ----------------------------------------------------------------------------- 

  PAW_PBE Zn 06Sep2000                  :
 energy of atom  1       EATOM=-1748.8345
 kinetic energy error for atom=    0.0029 (will be added to EATOM!!)
  PAW_PBE O 08Apr2002                   :
 energy of atom  2       EATOM= -432.3788
 kinetic energy error for atom=    0.0224 (will be added to EATOM!!)
 
 
 POSCAR: Zn O                                    
  positions in direct lattice
  velocities in cartesian coordinates
 exchange correlation table for  LEXCH =       14
   RHO(1)=    0.500       N(1)  =     2000
   RHO(2)=  100.500       N(2)  =     4000
 


--------------------------------------------------------------------------------------------------------


 ion  position               nearest neighbor table
   1  0.000  0.000  0.000-   3 2.15   4 2.15   4 2.15   3 2.15
   2  0.500  0.500  0.500-   3 2.15   4 2.15   3 2.15   4 2.15
   3  0.250  0.500  0.000-   1 2.15   2 2.15   2 2.15   1 2.15
   4  0.750  0.000  0.500-   1 2.15   2 2.15   1 2.15   2 2.15
 
  LATTYP: Found a simple tetragonal cell.
 ALAT       =     3.5065124364
 C/A-ratio  =     1.4158315706
  
  Lattice vectors:
  
 A1 = (   0.0000000000,   3.5065124364,   0.0000000000)
 A2 = (   0.0000000000,   0.0000000000,  -3.5065124364)
 A3 = (  -4.9646310102,   0.0000000000,   0.0000000000)


Analysis of symmetry for initial positions (statically):
=====================================================================
 Subroutine PRICEL returns following result:
 
  LATTYP: Found a body centered tetragonal cell.
 ALAT       =     3.5065124364
 C/A-ratio  =     1.4158315706
  
  Lattice vectors:
  
 A1 = (   2.4823155051,   1.7532562182,  -1.7532562182)
 A2 = (   2.4823155051,  -1.7532562182,   1.7532562182)
 A3 = (  -2.4823155051,  -1.7532562182,  -1.7532562182)
 
   2 primitive cells build up your supercell.
 

 Routine SETGRP: Setting up the symmetry group for a 
 simple tetragonal supercell.


 Subroutine GETGRP returns: Found  8 space group operations
 (whereof  8 operations were pure point group operations)
 out of a pool of 16 trial point group operations.


The static configuration has the point symmetry D_2d.


Analysis of symmetry for dynamics (positions and initial velocities):
=====================================================================
 Subroutine PRICEL returns following result:
 
  LATTYP: Found a body centered tetragonal cell.
 ALAT       =     3.5065124364
 C/A-ratio  =     1.4158315706
  
  Lattice vectors:
  
 A1 = (   2.4823155051,   1.7532562182,  -1.7532562182)
 A2 = (   2.4823155051,  -1.7532562182,   1.7532562182)
 A3 = (  -2.4823155051,  -1.7532562182,  -1.7532562182)
 
   2 primitive cells build up your supercell.
 

 Routine SETGRP: Setting up the symmetry group for a 
 simple tetragonal supercell.


 Subroutine GETGRP returns: Found  8 space group operations
 (whereof  8 operations were pure point group operations)
 out of a pool of 16 trial point group operations.


The dynamic configuration has the point symmetry D_2d.
 
 
 KPOINTS: Automatically generated k-point mesh    

Automatic generation of k-mesh.
Space group operators:
 irot       det(A)        alpha          n_x          n_y          n_z        tau_x        tau_y        tau_z
    1     1.000000     0.000000     1.000000     0.000000     0.000000     0.000000     0.000000     0.000000
    2    -1.000000    90.000000     1.000000     0.000000     0.000000     0.000000     0.000000     0.000000
    3     1.000000   180.000000     1.000000     0.000000     0.000000     0.000000     0.000000     0.000000
    4    -1.000000    90.000000    -1.000000     0.000000     0.000000     0.000000     0.000000     0.000000
    5    -1.000000   180.000000     0.000000     0.000000     1.000000     0.000000     0.000000     0.000000
    6     1.000000   180.000000     0.000000    -0.707107     0.707107     0.000000     0.000000     0.000000
    7    -1.000000   180.000000     0.000000     1.000000     0.000000     0.000000     0.000000     0.000000
    8     1.000000   180.000000     0.000000     0.707107     0.707107     0.000000     0.000000     0.000000
 
 Subroutine IBZKPT returns following result:
 ===========================================
 
 Found     60 irreducible k-points:
 
 Following reciprocal coordinates:
            Coordinates               Weight
  0.000000  0.000000  0.000000      1.000000
  0.166667  0.000000  0.000000      2.000000
  0.333333  0.000000  0.000000      2.000000
  0.500000  0.000000  0.000000      1.000000
  0.000000  0.125000  0.000000      4.000000
  0.166667  0.125000  0.000000      8.000000
  0.333333  0.125000  0.000000      8.000000
  0.500000  0.125000  0.000000      4.000000
  0.000000  0.250000  0.000000      4.000000
  0.166667  0.250000  0.000000      8.000000
  0.333333  0.250000  0.000000      8.000000
  0.500000  0.250000  0.000000      4.000000
  0.000000  0.375000  0.000000      4.000000
  0.166667  0.375000  0.000000      8.000000
  0.333333  0.375000  0.000000      8.000000
  0.500000  0.375000  0.000000      4.000000
  0.000000  0.500000  0.000000      2.000000
  0.166667  0.500000  0.000000      4.000000
  0.333333  0.500000  0.000000      4.000000
  0.500000  0.500000  0.000000      2.000000
  0.000000  0.125000  0.125000      4.000000
  0.166667  0.125000  0.125000      8.000000
  0.333333  0.125000  0.125000      8.000000
  0.500000  0.125000  0.125000      4.000000
  0.000000  0.250000  0.125000      8.000000
  0.166667  0.250000  0.125000     16.000000
  0.333333  0.250000  0.125000     16.000000
  0.500000  0.250000  0.125000      8.000000
  0.000000  0.375000  0.125000      8.000000
  0.166667  0.375000  0.125000     16.000000
  0.333333  0.375000  0.125000     16.000000
  0.500000  0.375000  0.125000      8.000000
  0.000000  0.500000  0.125000      4.000000
  0.166667  0.500000  0.125000      8.000000
  0.333333  0.500000  0.125000      8.000000
  0.500000  0.500000  0.125000      4.000000
  0.000000  0.250000  0.250000      4.000000
  0.166667  0.250000  0.250000      8.000000
  0.333333  0.250000  0.250000      8.000000
  0.500000  0.250000  0.250000      4.000000
  0.000000  0.375000  0.250000      8.000000
  0.166667  0.375000  0.250000     16.000000
  0.333333  0.375000  0.250000     16.000000
  0.500000  0.375000  0.250000      8.000000
  0.000000  0.500000  0.250000      4.000000
  0.166667  0.500000  0.250000      8.000000
  0.333333  0.500000  0.250000      8.000000
  0.500000  0.500000  0.250000      4.000000
  0.000000  0.375000  0.375000      4.000000
  0.166667  0.375000  0.375000      8.000000
  0.333333  0.375000  0.375000      8.000000
  0.500000  0.375000  0.375000      4.000000
  0.000000  0.500000  0.375000      4.000000
  0.166667  0.500000  0.375000      8.000000
  0.333333  0.500000  0.375000      8.000000
  0.500000  0.500000  0.375000      4.000000
  0.000000  0.500000  0.500000      1.000000
  0.166667  0.500000  0.500000      2.000000
  0.333333  0.500000  0.500000      2.000000
  0.500000  0.500000  0.500000      1.000000
 
 Following cartesian coordinates:
            Coordinates               Weight
  0.000000  0.000000  0.000000      1.000000
  0.033571  0.000000  0.000000      2.000000
  0.067142  0.000000  0.000000      2.000000
  0.100712  0.000000  0.000000      1.000000
  0.000000  0.035648  0.000000      4.000000
  0.033571  0.035648  0.000000      8.000000
  0.067142  0.035648  0.000000      8.000000
  0.100712  0.035648  0.000000      4.000000
  0.000000  0.071296  0.000000      4.000000
  0.033571  0.071296  0.000000      8.000000
  0.067142  0.071296  0.000000      8.000000
  0.100712  0.071296  0.000000      4.000000
  0.000000  0.106944  0.000000      4.000000
  0.033571  0.106944  0.000000      8.000000
  0.067142  0.106944  0.000000      8.000000
  0.100712  0.106944  0.000000      4.000000
  0.000000  0.142592  0.000000      2.000000
  0.033571  0.142592  0.000000      4.000000
  0.067142  0.142592  0.000000      4.000000
  0.100712  0.142592  0.000000      2.000000
  0.000000  0.035648  0.035648      4.000000
  0.033571  0.035648  0.035648      8.000000
  0.067142  0.035648  0.035648      8.000000
  0.100712  0.035648  0.035648      4.000000
  0.000000  0.071296  0.035648      8.000000
  0.033571  0.071296  0.035648     16.000000
  0.067142  0.071296  0.035648     16.000000
  0.100712  0.071296  0.035648      8.000000
  0.000000  0.106944  0.035648      8.000000
  0.033571  0.106944  0.035648     16.000000
  0.067142  0.106944  0.035648     16.000000
  0.100712  0.106944  0.035648      8.000000
  0.000000  0.142592  0.035648      4.000000
  0.033571  0.142592  0.035648      8.000000
  0.067142  0.142592  0.035648      8.000000
  0.100712  0.142592  0.035648      4.000000
  0.000000  0.071296  0.071296      4.000000
  0.033571  0.071296  0.071296      8.000000
  0.067142  0.071296  0.071296      8.000000
  0.100712  0.071296  0.071296      4.000000
  0.000000  0.106944  0.071296      8.000000
  0.033571  0.106944  0.071296     16.000000
  0.067142  0.106944  0.071296     16.000000
  0.100712  0.106944  0.071296      8.000000
  0.000000  0.142592  0.071296      4.000000
  0.033571  0.142592  0.071296      8.000000
  0.067142  0.142592  0.071296      8.000000
  0.100712  0.142592  0.071296      4.000000
  0.000000  0.106944  0.106944      4.000000
  0.033571  0.106944  0.106944      8.000000
  0.067142  0.106944  0.106944      8.000000
  0.100712  0.106944  0.106944      4.000000
  0.000000  0.142592  0.106944      4.000000
  0.033571  0.142592  0.106944      8.000000
  0.067142  0.142592  0.106944      8.000000
  0.100712  0.142592  0.106944      4.000000
  0.000000  0.142592  0.142592      1.000000
  0.033571  0.142592  0.142592      2.000000
  0.067142  0.142592  0.142592      2.000000
  0.100712  0.142592  0.142592      1.000000
 


--------------------------------------------------------------------------------------------------------




 Dimension of arrays:
   k-points           NKPTS =     60   k-points in BZ     NKDIM =     60   number of bands    NBANDS=     24
   number of dos      NEDOS =    301   number of ions     NIONS =      4
   non local maximal  LDIM  =      6   non local SUM 2l+1 LMDIM =     18
   total plane-waves  NPLWV =  11200
   max r-space proj   IRMAX =      1   max aug-charges    IRDMAX=    883
   dimension x,y,z NGX =    28 NGY =   20 NGZ =   20
   dimension x,y,z NGXF=    28 NGYF=   20 NGZF=   20
   support grid    NGXF=    28 NGYF=   20 NGZF=   20
   ions per type =               2   2
 NGX,Y,Z   is equivalent  to a cutoff of   9.38,  9.48,  9.48 a.u.
 NGXF,Y,Z  is equivalent  to a cutoff of   9.38,  9.48,  9.48 a.u.


 I would recommend the setting:
   dimension x,y,z NGX =    27 NGY =   19 NGZ =   19
 SYSTEM =  Name                                    
 POSCAR =  Zn O                                    

 Startparameter for this run:
   NWRITE =      2    write-flag & timer
   PREC   = single    normal or accurate (medium, high low for compatibility)
   ISTART =      0    job   : 0-new  1-cont  2-samecut
   ICHARG =      2    charge: 1-file 2-atom 10-const
   ISPIN  =      1    spin polarized calculation?
   LNONCOLLINEAR =      F non collinear calculations
   LSORBIT =      F    spin-orbit coupling
   INIWAV =      1    electr: 0-lowe 1-rand  2-diag
   LASPH  =      F    aspherical Exc in radial PAW
   METAGGA=      F    non-selfconsistent MetaGGA calc.

 Electronic Relaxation 1
   ENCUT  =  500.0 eV  36.75 Ry    6.06 a.u.   9.05  6.39  6.39*2*pi/ulx,y,z
   ENINI  =  500.0     initial cutoff
   ENAUG  =  605.4 eV  augmentation charge cutoff
   NELM   =     60;   NELMIN=  2; NELMDL= -5     # of ELM steps 
   EDIFF  = 0.1E-05   stopping-criterion for ELM
   LREAL  =      F    real-space projection
   NLSPLINE    = F    spline interpolate recip. space projectors
   LCOMPAT=      F    compatible to vasp.4.4
   GGA_COMPAT  = T    GGA compatible to vasp.4.4-vasp.4.6
   LMAXPAW     = -100 max onsite density
   LMAXMIX     =    2 max onsite mixed and CHGCAR
   VOSKOWN=      0    Vosko Wilk Nusair interpolation
   ROPT   =    0.00000   0.00000
 Ionic relaxation
   EDIFFG = 0.1E-02   stopping-criterion for IOM
   NSW    =      0    number of steps for IOM
   NBLOCK =      1;   KBLOCK =      1    inner block; outer block 
   IBRION =     -1    ionic relax: 0-MD 1-quasi-New 2-CG
   NFREE  =      0    steps in history (QN), initial steepest desc. (CG)
   ISIF   =      3    stress and relaxation
   IWAVPR =     10    prediction:  0-non 1-charg 2-wave 3-comb
   ISYM   =      2    0-nonsym 1-usesym 2-fastsym
   LCORR  =      T    Harris-Foulkes like correction to forces

   POTIM  = 0.5000    time-step for ionic-motion
   TEIN   =    0.0    initial temperature
   TEBEG  =    0.0;   TEEND  =   0.0 temperature during run
   SMASS  =  -3.00    Nose mass-parameter (am)
   estimated Nose-frequenzy (Omega)   =  0.10E-29 period in steps =****** mass=  -0.563E-27a.u.
   SCALEE = 1.0000    scale energy and forces
   NPACO  =    256;   APACO  = 16.0  distance and # of slots for P.C.
   PSTRESS=    0.0 pullay stress

  Mass of Ions in am
   POMASS =  65.39 16.00
  Ionic Valenz
   ZVAL   =  12.00  6.00
  Atomic Wigner-Seitz radii
   RWIGS  =  -1.00 -1.00
  virtual crystal weights 
   VCA    =   1.00  1.00
   NELECT =      36.0000    total number of electrons
   NUPDOWN=      -1.0000    fix difference up-down

 DOS related values:
   EMIN   =  10.00;   EMAX   =-10.00  energy-range for DOS
   EFERMI =   0.00
   ISMEAR =     0;   SIGMA  =   0.01  broadening in eV -4-tet -1-fermi 0-gaus

 Electronic relaxation 2 (details)
   IALGO  =     38    algorithm
   LDIAG  =      T    sub-space diagonalisation (order eigenvalues)
   LSUBROT=      F    optimize rotation matrix (better conditioning)
   TURBO    =      0    0=normal 1=particle mesh
   IRESTART =      0    0=no restart 2=restart with 2 vectors
   NREBOOT  =      0    no. of reboots
   NMIN     =      0    reboot dimension
   EREF     =   0.00    reference energy to select bands
   IMIX   =      4    mixing-type and parameters
     AMIX     =   0.40;   BMIX     =  1.00
     AMIX_MAG =   1.60;   BMIX_MAG =  1.00
     AMIN     =   0.01
     WC   =   100.;   INIMIX=   1;  MIXPRE=   1;  MAXMIX= -45

 Intra band minimization:
   WEIMIN = 0.0000     energy-eigenvalue tresh-hold
   EBREAK =  0.10E-07  absolut break condition
   DEPER  =   0.30     relativ break condition  

   TIME   =   0.40     timestep for ELM

  volume/ion in A,a.u.               =      15.26       102.99
  Fermi-wavevector in a.u.,A,eV,Ry     =   1.372871  2.594350 25.643920  1.884775
  Thomas-Fermi vector in A             =   2.498439
 
 Write flags
   LWAVE  =      F    write WAVECAR
   LCHARG =      T    write CHGCAR
   LVTOT  =      F    write LOCPOT, total local potential
   LVHAR  =      T    write LOCPOT, Hartree potential only
   LELF   =      F    write electronic localiz. function (ELF)
   LORBIT =     10    0 simple, 1 ext, 2 COOP (PROOUT)


 Dipole corrections
   LMONO  =      F    monopole corrections only (constant potential shift)
   LDIPOL =      F    correct potential (dipole corrections)
   IDIPOL =      0    1-x, 2-y, 3-z, 4-all directions 
   EPSILON=  1.0000000 bulk dielectric constant

 Core level calculations are selected ICORELEVEL =  1
 Exchange correlation treatment:
   GGA     =    PS    GGA type
   LEXCH   =    14    internal setting for exchange type
   VOSKOWN=      0    Vosko Wilk Nusair interpolation
   LHFCALC =     F    Hartree Fock is set to
   LHFONE  =     F    Hartree Fock one center treatment
   AEXX    =    0.0000 exact exchange contribution

 Linear response parameters
   LEPSILON=     F    determine dielectric tensor
   LRPA    =     F    only Hartree local field effects (RPA)
   LNABLA  =     F    use nabla operator in PAW spheres
   LVEL    =     F    velocity operator in full k-point grid
   LINTERFAST=   F  fast interpolation
   KINTER  =     0    interpolate to denser k-point grid
   CSHIFT  =0.1000    complex shift for real part using Kramers Kronig
   OMEGAMAX=  -1.0    maximum frequency
   DEG_THRESHOLD= 0.2000000E-02 threshold for treating states as degnerate
   RTIME   =    0.100 relaxation time in fs

 Orbital magnetization related:
   ORBITALMAG=     F  switch on orbital magnetization
   LCHIMAG   =     F  perturbation theory with respect to B field
   DQ        =  0.001000  dq finite difference perturbation B field



--------------------------------------------------------------------------------------------------------


 Static calculation
 charge density and potential will be updated during run
 non-spin polarized calculation
 Variant of blocked Davidson
 Davidson routine will perform the subspace rotation
 perform sub-space diagonalisation
    after iterative eigenvector-optimisation
 modified Broyden-mixing scheme, WC =      100.0
 initial mixing is a Kerker type mixing with AMIX =  0.4000 and BMIX =      1.0000
 Hartree-type preconditioning will be used
 using additional bands            6
 reciprocal scheme for non local part
 use partial core corrections
 calculate Harris-corrections to forces 
   (improved forces if not selfconsistent)
 use gradient corrections 
 use of overlap-Matrix (Vanderbilt PP)
 Gauss-broadening in eV      SIGMA  =   0.01


--------------------------------------------------------------------------------------------------------


  energy-cutoff  :      500.00
  volume of cell :       61.04
      direct lattice vectors                 reciprocal lattice vectors
     4.964631010  0.000000000  0.000000000     0.201424839  0.000000000  0.000000000
     0.000000000  3.506512436  0.000000000     0.000000000  0.285183646  0.000000000
     0.000000000  0.000000000  3.506512436     0.000000000  0.000000000  0.285183646

  length of vectors
     4.964631010  3.506512436  3.506512436     0.201424839  0.285183646  0.285183646


 
 k-points in units of 2pi/SCALE and weight: Automatically generated k-point mesh    
   0.00000000  0.00000000  0.00000000       0.003
   0.03357081  0.00000000  0.00000000       0.005
   0.06714161  0.00000000  0.00000000       0.005
   0.10071242  0.00000000  0.00000000       0.003
   0.00000000  0.03564796  0.00000000       0.010
   0.03357081  0.03564796  0.00000000       0.021
   0.06714161  0.03564796  0.00000000       0.021
   0.10071242  0.03564796  0.00000000       0.010
   0.00000000  0.07129591  0.00000000       0.010
   0.03357081  0.07129591  0.00000000       0.021
   0.06714161  0.07129591  0.00000000       0.021
   0.10071242  0.07129591  0.00000000       0.010
   0.00000000  0.10694387  0.00000000       0.010
   0.03357081  0.10694387  0.00000000       0.021
   0.06714161  0.10694387  0.00000000       0.021
   0.10071242  0.10694387  0.00000000       0.010
   0.00000000  0.14259182  0.00000000       0.005
   0.03357081  0.14259182  0.00000000       0.010
   0.06714161  0.14259182  0.00000000       0.010
   0.10071242  0.14259182  0.00000000       0.005
   0.00000000  0.03564796  0.03564796       0.010
   0.03357081  0.03564796  0.03564796       0.021
   0.06714161  0.03564796  0.03564796       0.021
   0.10071242  0.03564796  0.03564796       0.010
   0.00000000  0.07129591  0.03564796       0.021
   0.03357081  0.07129591  0.03564796       0.042
   0.06714161  0.07129591  0.03564796       0.042
   0.10071242  0.07129591  0.03564796       0.021
   0.00000000  0.10694387  0.03564796       0.021
   0.03357081  0.10694387  0.03564796       0.042
   0.06714161  0.10694387  0.03564796       0.042
   0.10071242  0.10694387  0.03564796       0.021
   0.00000000  0.14259182  0.03564796       0.010
   0.03357081  0.14259182  0.03564796       0.021
   0.06714161  0.14259182  0.03564796       0.021
   0.10071242  0.14259182  0.03564796       0.010
   0.00000000  0.07129591  0.07129591       0.010
   0.03357081  0.07129591  0.07129591       0.021
   0.06714161  0.07129591  0.07129591       0.021
   0.10071242  0.07129591  0.07129591       0.010
   0.00000000  0.10694387  0.07129591       0.021
   0.03357081  0.10694387  0.07129591       0.042
   0.06714161  0.10694387  0.07129591       0.042
   0.10071242  0.10694387  0.07129591       0.021
   0.00000000  0.14259182  0.07129591       0.010
   0.03357081  0.14259182  0.07129591       0.021
   0.06714161  0.14259182  0.07129591       0.021
   0.10071242  0.14259182  0.07129591       0.010
   0.00000000  0.10694387  0.10694387       0.010
   0.03357081  0.10694387  0.10694387       0.021
   0.06714161  0.10694387  0.10694387       0.021
   0.10071242  0.10694387  0.10694387       0.010
   0.00000000  0.14259182  0.10694387       0.010
   0.03357081  0.14259182  0.10694387       0.021
   0.06714161  0.14259182  0.10694387       0.021
   0.10071242  0.14259182  0.10694387       0.010
   0.00000000  0.14259182  0.14259182       0.003
   0.03357081  0.14259182  0.14259182       0.005
   0.06714161  0.14259182  0.14259182       0.005
   0.10071242  0.14259182  0.14259182       0.003
 
 k-points in reciprocal lattice and weights: Automatically generated k-point mesh    
   0.00000000  0.00000000  0.00000000       0.003
   0.16666667  0.00000000  0.00000000       0.005
   0.33333333  0.00000000  0.00000000       0.005
   0.50000000  0.00000000  0.00000000       0.003
   0.00000000  0.12500000  0.00000000       0.010
   0.16666667  0.12500000  0.00000000       0.021
   0.33333333  0.12500000  0.00000000       0.021
   0.50000000  0.12500000  0.00000000       0.010
   0.00000000  0.25000000  0.00000000       0.010
   0.16666667  0.25000000  0.00000000       0.021
   0.33333333  0.25000000  0.00000000       0.021
   0.50000000  0.25000000  0.00000000       0.010
   0.00000000  0.37500000  0.00000000       0.010
   0.16666667  0.37500000  0.00000000       0.021
   0.33333333  0.37500000  0.00000000       0.021
   0.50000000  0.37500000  0.00000000       0.010
   0.00000000  0.50000000  0.00000000       0.005
   0.16666667  0.50000000  0.00000000       0.010
   0.33333333  0.50000000  0.00000000       0.010
   0.50000000  0.50000000  0.00000000       0.005
   0.00000000  0.12500000  0.12500000       0.010
   0.16666667  0.12500000  0.12500000       0.021
   0.33333333  0.12500000  0.12500000       0.021
   0.50000000  0.12500000  0.12500000       0.010
   0.00000000  0.25000000  0.12500000       0.021
   0.16666667  0.25000000  0.12500000       0.042
   0.33333333  0.25000000  0.12500000       0.042
   0.50000000  0.25000000  0.12500000       0.021
   0.00000000  0.37500000  0.12500000       0.021
   0.16666667  0.37500000  0.12500000       0.042
   0.33333333  0.37500000  0.12500000       0.042
   0.50000000  0.37500000  0.12500000       0.021
   0.00000000  0.50000000  0.12500000       0.010
   0.16666667  0.50000000  0.12500000       0.021
   0.33333333  0.50000000  0.12500000       0.021
   0.50000000  0.50000000  0.12500000       0.010
   0.00000000  0.25000000  0.25000000       0.010
   0.16666667  0.25000000  0.25000000       0.021
   0.33333333  0.25000000  0.25000000       0.021
   0.50000000  0.25000000  0.25000000       0.010
   0.00000000  0.37500000  0.25000000       0.021
   0.16666667  0.37500000  0.25000000       0.042
   0.33333333  0.37500000  0.25000000       0.042
   0.50000000  0.37500000  0.25000000       0.021
   0.00000000  0.50000000  0.25000000       0.010
   0.16666667  0.50000000  0.25000000       0.021
   0.33333333  0.50000000  0.25000000       0.021
   0.50000000  0.50000000  0.25000000       0.010
   0.00000000  0.37500000  0.37500000       0.010
   0.16666667  0.37500000  0.37500000       0.021
   0.33333333  0.37500000  0.37500000       0.021
   0.50000000  0.37500000  0.37500000       0.010
   0.00000000  0.50000000  0.37500000       0.010
   0.16666667  0.50000000  0.37500000       0.021
   0.33333333  0.50000000  0.37500000       0.021
   0.50000000  0.50000000  0.37500000       0.010
   0.00000000  0.50000000  0.50000000       0.003
   0.16666667  0.50000000  0.50000000       0.005
   0.33333333  0.50000000  0.50000000       0.005
   0.50000000  0.50000000  0.50000000       0.003
 
 position of ions in fractional coordinates (direct lattice) 
   0.00000000  0.00000000  0.00000000
   0.50000000  0.50000000  0.50000000
   0.25000000  0.50000000  0.00000000
   0.75000000  0.00000000  0.50000000
 
 position of ions in cartesian coordinates  (Angst):
   0.00000000  0.00000000  0.00000000
   2.48231551  1.75325622  1.75325622
   1.24115775  1.75325622  0.00000000
   3.72347326  0.00000000  1.75325622
 


--------------------------------------------------------------------------------------------------------


 k-point  1 :   0.0000 0.0000 0.0000  plane waves:    1523
 k-point  2 :   0.1667 0.0000 0.0000  plane waves:    1542
 k-point  3 :   0.3333 0.0000 0.0000  plane waves:    1554
 k-point  4 :   0.5000 0.0000 0.0000  plane waves:    1538
 k-point  5 :   0.0000 0.1250 0.0000  plane waves:    1539
 k-point  6 :   0.1667 0.1250 0.0000  plane waves:    1556
 k-point  7 :   0.3333 0.1250 0.0000  plane waves:    1559
 k-point  8 :   0.5000 0.1250 0.0000  plane waves:    1566
 k-point  9 :   0.0000 0.2500 0.0000  plane waves:    1537
 k-point 10 :   0.1667 0.2500 0.0000  plane waves:    1556
 k-point 11 :   0.3333 0.2500 0.0000  plane waves:    1549
 k-point 12 :   0.5000 0.2500 0.0000  plane waves:    1566
 k-point 13 :   0.0000 0.3750 0.0000  plane waves:    1561
 k-point 14 :   0.1667 0.3750 0.0000  plane waves:    1553
 k-point 15 :   0.3333 0.3750 0.0000  plane waves:    1549
 k-point 16 :   0.5000 0.3750 0.0000  plane waves:    1556
 k-point 17 :   0.0000 0.5000 0.0000  plane waves:    1568
 k-point 18 :   0.1667 0.5000 0.0000  plane waves:    1554
 k-point 19 :   0.3333 0.5000 0.0000  plane waves:    1554
 k-point 20 :   0.5000 0.5000 0.0000  plane waves:    1556
 k-point 21 :   0.0000 0.1250 0.1250  plane waves:    1547
 k-point 22 :   0.1667 0.1250 0.1250  plane waves:    1553
 k-point 23 :   0.3333 0.1250 0.1250  plane waves:    1552
 k-point 24 :   0.5000 0.1250 0.1250  plane waves:    1560
 k-point 25 :   0.0000 0.2500 0.1250  plane waves:    1550
 k-point 26 :   0.1667 0.2500 0.1250  plane waves:    1554
 k-point 27 :   0.3333 0.2500 0.1250  plane waves:    1557
 k-point 28 :   0.5000 0.2500 0.1250  plane waves:    1556
 k-point 29 :   0.0000 0.3750 0.1250  plane waves:    1549
 k-point 30 :   0.1667 0.3750 0.1250  plane waves:    1552
 k-point 31 :   0.3333 0.3750 0.1250  plane waves:    1555
 k-point 32 :   0.5000 0.3750 0.1250  plane waves:    1556
 k-point 33 :   0.0000 0.5000 0.1250  plane waves:    1550
 k-point 34 :   0.1667 0.5000 0.1250  plane waves:    1558
 k-point 35 :   0.3333 0.5000 0.1250  plane waves:    1550
 k-point 36 :   0.5000 0.5000 0.1250  plane waves:    1540
 k-point 37 :   0.0000 0.2500 0.2500  plane waves:    1541
 k-point 38 :   0.1667 0.2500 0.2500  plane waves:    1542
 k-point 39 :   0.3333 0.2500 0.2500  plane waves:    1557
 k-point 40 :   0.5000 0.2500 0.2500  plane waves:    1568
 k-point 41 :   0.0000 0.3750 0.2500  plane waves:    1538
 k-point 42 :   0.1667 0.3750 0.2500  plane waves:    1543
 k-point 43 :   0.3333 0.3750 0.2500  plane waves:    1552
 k-point 44 :   0.5000 0.3750 0.2500  plane waves:    1552
 k-point 45 :   0.0000 0.5000 0.2500  plane waves:    1544
 k-point 46 :   0.1667 0.5000 0.2500  plane waves:    1546
 k-point 47 :   0.3333 0.5000 0.2500  plane waves:    1556
 k-point 48 :   0.5000 0.5000 0.2500  plane waves:    1528
 k-point 49 :   0.0000 0.3750 0.3750  plane waves:    1547
 k-point 50 :   0.1667 0.3750 0.3750  plane waves:    1542
 k-point 51 :   0.3333 0.3750 0.3750  plane waves:    1540
 k-point 52 :   0.5000 0.3750 0.3750  plane waves:    1538
 k-point 53 :   0.0000 0.5000 0.3750  plane waves:    1542
 k-point 54 :   0.1667 0.5000 0.3750  plane waves:    1534
 k-point 55 :   0.3333 0.5000 0.3750  plane waves:    1532
 k-point 56 :   0.5000 0.5000 0.3750  plane waves:    1532
 k-point 57 :   0.0000 0.5000 0.5000  plane waves:    1548
 k-point 58 :   0.1667 0.5000 0.5000  plane waves:    1532
 k-point 59 :   0.3333 0.5000 0.5000  plane waves:    1536
 k-point 60 :   0.5000 0.5000 0.5000  plane waves:    1544

 maximum and minimum number of plane-waves per node :      1568     1523

 maximum number of plane-waves:      1568
 maximum index in each direction: 
   IXMAX=    9   IYMAX=    6   IZMAX=    6
   IXMIN=   -9   IYMIN=   -6   IZMIN=   -6

 WARNING: aliasing errors must be expected set NGX to  38 to avoid them
 WARNING: aliasing errors must be expected set NGY to  26 to avoid them
 WARNING: aliasing errors must be expected set NGZ to  26 to avoid them
 aliasing errors are usually negligible using standard VASP settings
 and one can safely disregard these warnings

 serial   3D FFT for wavefunctions
 parallel 3D FFT for charge:
    minimum data exchange during FFTs selected (reduces bandwidth)


 total amount of memory used by VASP on root node    64282. kBytes
========================================================================

   base      :      30000. kBytes
   nonl-proj :      27264. kBytes
   fftplans  :        137. kBytes
   grid      :        576. kBytes
   one-center:         62. kBytes
   wavefun   :       6243. kBytes
 
     INWAV:  cpu time    0.0000: real time    0.0007
 Broyden mixing: mesh for mixing (old mesh)
   NGX = 19   NGY = 13   NGZ = 13
  (NGX  = 28   NGY  = 20   NGZ  = 20)
  gives a total of   3211 points

 initial charge density was supplied:
 charge density of overlapping atoms calculated
 number of electron      36.0000000 magnetization 
 keeping initial charge density in first step


--------------------------------------------------------------------------------------------------------


 Maximum index for augmentation-charges          142 (set IRDMAX)


--------------------------------------------------------------------------------------------------------


 First call to EWALD:  gamma=   0.450
 Maximum number of real-space cells 2x 3x 3
 Maximum number of reciprocal cells 3x 2x 2

 FEWALD executed in parallel
    FEWALD:  cpu time    0.0018: real time    0.0056


----------------------------------------- Iteration    1(   1)  ---------------------------------------


    POTLOK:  cpu time    0.0030: real time    0.0289
    SETDIJ:  cpu time    0.0011: real time    0.0043
     EDDAV:  cpu time    0.3897: real time    1.1869
       DOS:  cpu time    0.0018: real time    0.0064
    --------------------------------------------
      LOOP:  cpu time    0.4049: real time    1.2360

 eigenvalue-minimisations  :  2880
 total energy-change (2. order) : 0.2126361E+03  (-0.1904176E+04)
 number of electron      36.0000000 magnetization 
 augmentation part       36.0000000 magnetization 

 Free energy of the ion-electron system (eV)
  ---------------------------------------------------
  alpha Z        PSCENC =       182.88822945
  Ewald energy   TEWEN  =     -2730.71446512
  -Hartree energ DENC   =     -1423.03753360
  -exchange      EXHF   =         0.00000000
  -V(xc)+E(xc)   XCENC  =       169.98376362
  PAW double counting   =      3601.42050632    -3959.52880734
  entropy T*S    EENTRO =        -0.00011789
  eigenvalues    EBANDS =        14.24188626
  atomic energy  EATOM  =      4357.38260945
  Solvation  Ediel_sol  =         0.00000000
  ---------------------------------------------------
  free energy    TOTEN  =       212.63607115 eV

  energy without entropy =      212.63618904  energy(sigma->0) =      212.63613009


--------------------------------------------------------------------------------------------------------




----------------------------------------- Iteration    1(   2)  ---------------------------------------


     EDDAV:  cpu time    0.4498: real time    1.3618
       DOS:  cpu time    0.0006: real time    0.0021
    --------------------------------------------
      LOOP:  cpu time    0.4511: real time    1.3667

 eigenvalue-minimisations  :  3432
 total energy-change (2. order) :-0.2182372E+03  (-0.2116293E+03)
 number of electron      36.0000000 magnetization 
 augmentation part       36.0000000 magnetization 

 Free energy of the ion-electron system (eV)
  ---------------------------------------------------
  alpha Z        PSCENC =       182.88822945
  Ewald energy   TEWEN  =     -2730.71446512
  -Hartree energ DENC   =     -1423.03753360
  -exchange      EXHF   =         0.00000000
  -V(xc)+E(xc)   XCENC  =       169.98376362
  PAW double counting   =      3601.42050632    -3959.52880734
  entropy T*S    EENTRO =        -0.00000000
  eigenvalues    EBANDS =      -203.99541709
  atomic energy  EATOM  =      4357.38260945
  Solvation  Ediel_sol  =         0.00000000
  ---------------------------------------------------
  free energy    TOTEN  =        -5.60111431 eV

  energy without entropy =       -5.60111431  energy(sigma->0) =       -5.60111431


--------------------------------------------------------------------------------------------------------




----------------------------------------- Iteration    1(   3)  ---------------------------------------


     EDDAV:  cpu time    0.4232: real time    1.2475
       DOS:  cpu time    0.0007: real time    0.0021
    --------------------------------------------
      LOOP:  cpu time    0.4248: real time    1.2530

 eigenvalue-minimisations  :  3060
 total energy-change (2. order) :-0.1552770E+02  (-0.1546283E+02)
 number of electron      36.0000000 magnetization 
 augmentation part       36.0000000 magnetization 

 Free energy of the ion-electron system (eV)
  ---------------------------------------------------
  alpha Z        PSCENC =       182.88822945
  Ewald energy   TEWEN  =     -2730.71446512
  -Hartree energ DENC   =     -1423.03753360
  -exchange      EXHF   =         0.00000000
  -V(xc)+E(xc)   XCENC  =       169.98376362
  PAW double counting   =      3601.42050632    -3959.52880734
  entropy T*S    EENTRO =        -0.00000000
  eigenvalues    EBANDS =      -219.52312031
  atomic energy  EATOM  =      4357.38260945
  Solvation  Ediel_sol  =         0.00000000
  ---------------------------------------------------
  free energy    TOTEN  =       -21.12881753 eV

  energy without entropy =      -21.12881753  energy(sigma->0) =      -21.12881753


--------------------------------------------------------------------------------------------------------




----------------------------------------- Iteration    1(   4)  ---------------------------------------


     EDDAV:  cpu time    0.4947: real time    1.5199
       DOS:  cpu time    0.0006: real time    0.0019
    --------------------------------------------
      LOOP:  cpu time    0.4962: real time    1.5263

 eigenvalue-minimisations  :  3876
 total energy-change (2. order) :-0.1617428E+00  (-0.1616835E+00)
 number of electron      36.0000000 magnetization 
 augmentation part       36.0000000 magnetization 

 Free energy of the ion-electron system (eV)
  ---------------------------------------------------
  alpha Z        PSCENC =       182.88822945
  Ewald energy   TEWEN  =     -2730.71446512
  -Hartree energ DENC   =     -1423.03753360
  -exchange      EXHF   =         0.00000000
  -V(xc)+E(xc)   XCENC  =       169.98376362
  PAW double counting   =      3601.42050632    -3959.52880734
  entropy T*S    EENTRO =        -0.00000000
  eigenvalues    EBANDS =      -219.68486311
  atomic energy  EATOM  =      4357.38260945
  Solvation  Ediel_sol  =         0.00000000
  ---------------------------------------------------
  free energy    TOTEN  =       -21.29056033 eV

  energy without entropy =      -21.29056033  energy(sigma->0) =      -21.29056033


--------------------------------------------------------------------------------------------------------




----------------------------------------- Iteration    1(   5)  ---------------------------------------


     EDDAV:  cpu time    0.4166: real time    1.3708
       DOS:  cpu time    0.0007: real time    0.0299
    CHARGE:  cpu time    0.0127: real time    0.0229
    MIXING:  cpu time    0.0030: real time    0.0042
    --------------------------------------------
      LOOP:  cpu time    0.4340: real time    1.4299

 eigenvalue-minimisations  :  3192
 total energy-change (2. order) :-0.9746149E-03  (-0.9746059E-03)
 number of electron      36.0004967 magnetization 
 augmentation part       17.7698226 magnetization 

 Broyden mixing:
  rms(total) = 0.10919E+01    rms(broyden)= 0.10916E+01
  rms(prec ) = 0.22584E+01
  weight for this iteration     100.00

 Free energy of the ion-electron system (eV)
  ---------------------------------------------------
  alpha Z        PSCENC =       182.88822945
  Ewald energy   TEWEN  =     -2730.71446512
  -Hartree energ DENC   =     -1423.03753360
  -exchange      EXHF   =         0.00000000
  -V(xc)+E(xc)   XCENC  =       169.98376362
  PAW double counting   =      3601.42050632    -3959.52880734
  entropy T*S    EENTRO =        -0.00000000
  eigenvalues    EBANDS =      -219.68583772
  atomic energy  EATOM  =      4357.38260945
  Solvation  Ediel_sol  =         0.00000000
  ---------------------------------------------------
  free energy    TOTEN  =       -21.29153494 eV

  energy without entropy =      -21.29153494  energy(sigma->0) =      -21.29153494


--------------------------------------------------------------------------------------------------------




----------------------------------------- Iteration    1(   6)  ---------------------------------------


    POTLOK:  cpu time    0.0026: real time    0.0097
    SETDIJ:  cpu time    0.0007: real time    0.0035
     EDDAV:  cpu time    0.6139: real time    2.0578
       DOS:  cpu time    0.0016: real time    0.0266
    CHARGE:  cpu time    0.0154: real time    0.0297
    MIXING:  cpu time    0.0005: real time    0.0016
    --------------------------------------------
      LOOP:  cpu time    0.6355: real time    2.1310

 eigenvalue-minimisations  :  5088
 total energy-change (2. order) : 0.2890553E+01  (-0.1293143E+01)
 number of electron      36.0004647 magnetization 
 augmentation part       17.4464149 magnetization 

 Broyden mixing:
  rms(total) = 0.67389E+00    rms(broyden)= 0.67367E+00
  rms(prec ) = 0.84545E+00
  weight for this iteration     100.00

 eigenvalues of (default mixing * dielectric matrix)
  average eigenvalue GAMMA=   0.7219
  0.7219

 Free energy of the ion-electron system (eV)
  ---------------------------------------------------
  alpha Z        PSCENC =       182.88822945
  Ewald energy   TEWEN  =     -2730.71446512
  -Hartree energ DENC   =     -1443.90527317
  -exchange      EXHF   =         0.00000000
  -V(xc)+E(xc)   XCENC  =       172.00228187
  PAW double counting   =      3696.13641348    -4048.60424581
  entropy T*S    EENTRO =        -0.00003954
  eigenvalues    EBANDS =      -203.58649206
  atomic energy  EATOM  =      4357.38260945
  Solvation  Ediel_sol  =         0.00000000
  ---------------------------------------------------
  free energy    TOTEN  =       -18.40098145 eV

  energy without entropy =      -18.40094191  energy(sigma->0) =      -18.40096168


--------------------------------------------------------------------------------------------------------




----------------------------------------- Iteration    1(   7)  ---------------------------------------


    POTLOK:  cpu time    0.0023: real time    0.0076
    SETDIJ:  cpu time    0.0006: real time    0.0028
     EDDAV:  cpu time    0.4460: real time    1.4617
       DOS:  cpu time    0.0007: real time    0.0020
    CHARGE:  cpu time    0.0147: real time    0.0446
    MIXING:  cpu time    0.0005: real time    0.0014
    --------------------------------------------
      LOOP:  cpu time    0.4659: real time    1.5226

 eigenvalue-minimisations  :  3456
 total energy-change (2. order) : 0.4370224E-01  (-0.2484288E+00)
 number of electron      36.0004657 magnetization 
 augmentation part       17.4284740 magnetization 

 Broyden mixing:
  rms(total) = 0.37684E+00    rms(broyden)= 0.37683E+00
  rms(prec ) = 0.47787E+00
  weight for this iteration     100.00

 eigenvalues of (default mixing * dielectric matrix)
  average eigenvalue GAMMA=   1.4247
  0.9458  1.9037

 Free energy of the ion-electron system (eV)
  ---------------------------------------------------
  alpha Z        PSCENC =       182.88822945
  Ewald energy   TEWEN  =     -2730.71446512
  -Hartree energ DENC   =     -1441.06663060
  -exchange      EXHF   =         0.00000000
  -V(xc)+E(xc)   XCENC  =       171.71445836
  PAW double counting   =      3755.07773034    -4110.71889868
  entropy T*S    EENTRO =        -0.00000000
  eigenvalues    EBANDS =      -202.92031241
  atomic energy  EATOM  =      4357.38260945
  Solvation  Ediel_sol  =         0.00000000
  ---------------------------------------------------
  free energy    TOTEN  =       -18.35727921 eV

  energy without entropy =      -18.35727921  energy(sigma->0) =      -18.35727921


--------------------------------------------------------------------------------------------------------




----------------------------------------- Iteration    1(   8)  ---------------------------------------


    POTLOK:  cpu time    0.0024: real time    0.0069
    SETDIJ:  cpu time    0.0008: real time    0.0037
     EDDAV:  cpu time    0.4382: real time    1.3035
       DOS:  cpu time    0.0007: real time    0.0020
    CHARGE:  cpu time    0.0137: real time    0.0411
    MIXING:  cpu time    0.0005: real time    0.0015
    --------------------------------------------
      LOOP:  cpu time    0.4572: real time    1.3611

 eigenvalue-minimisations  :  3192
 total energy-change (2. order) : 0.2551724E-01  (-0.7115371E-01)
 number of electron      36.0004713 magnetization 
 augmentation part       17.5020550 magnetization 

 Broyden mixing:
  rms(total) = 0.12945E+00    rms(broyden)= 0.12939E+00
  rms(prec ) = 0.25257E+00
  weight for this iteration     100.00

 eigenvalues of (default mixing * dielectric matrix)
  average eigenvalue GAMMA=   1.3900
  2.5245  0.8228  0.8228

 Free energy of the ion-electron system (eV)
  ---------------------------------------------------
  alpha Z        PSCENC =       182.88822945
  Ewald energy   TEWEN  =     -2730.71446512
  -Hartree energ DENC   =     -1435.27291384
  -exchange      EXHF   =         0.00000000
  -V(xc)+E(xc)   XCENC  =       171.37621007
  PAW double counting   =      3821.39402041    -4177.16646841
  entropy T*S    EENTRO =        -0.00000000
  eigenvalues    EBANDS =      -208.21898399
  atomic energy  EATOM  =      4357.38260945
  Solvation  Ediel_sol  =         0.00000000
  ---------------------------------------------------
  free energy    TOTEN  =       -18.33176197 eV

  energy without entropy =      -18.33176197  energy(sigma->0) =      -18.33176197


--------------------------------------------------------------------------------------------------------




----------------------------------------- Iteration    1(   9)  ---------------------------------------


    POTLOK:  cpu time    0.0024: real time    0.0064
    SETDIJ:  cpu time    0.0008: real time    0.0036
     EDDAV:  cpu time    0.4752: real time    1.4086
       DOS:  cpu time    0.0007: real time    0.0240
    CHARGE:  cpu time    0.0129: real time    0.0209
    MIXING:  cpu time    0.0005: real time    0.0017
    --------------------------------------------
      LOOP:  cpu time    0.4934: real time    1.4678

 eigenvalue-minimisations  :  3624
 total energy-change (2. order) : 0.3186527E-01  (-0.1478125E-01)
 number of electron      36.0004683 magnetization 
 augmentation part       17.4600174 magnetization 

 Broyden mixing:
  rms(total) = 0.32007E-01    rms(broyden)= 0.31987E-01
  rms(prec ) = 0.48572E-01
  weight for this iteration     100.00

 eigenvalues of (default mixing * dielectric matrix)
  average eigenvalue GAMMA=   1.3853
  2.3222  1.4747  0.8722  0.8722

 Free energy of the ion-electron system (eV)
  ---------------------------------------------------
  alpha Z        PSCENC =       182.88822945
  Ewald energy   TEWEN  =     -2730.71446512
  -Hartree energ DENC   =     -1438.17791798
  -exchange      EXHF   =         0.00000000
  -V(xc)+E(xc)   XCENC  =       171.59955310
  PAW double counting   =      3834.40864762    -4190.65176887
  entropy T*S    EENTRO =        -0.00000000
  eigenvalues    EBANDS =      -205.03478435
  atomic energy  EATOM  =      4357.38260945
  Solvation  Ediel_sol  =         0.00000000
  ---------------------------------------------------
  free energy    TOTEN  =       -18.29989670 eV

  energy without entropy =      -18.29989670  energy(sigma->0) =      -18.29989670


--------------------------------------------------------------------------------------------------------




----------------------------------------- Iteration    1(  10)  ---------------------------------------


    POTLOK:  cpu time    0.0025: real time    0.0067
    SETDIJ:  cpu time    0.0007: real time    0.0031
     EDDAV:  cpu time    0.4085: real time    1.2678
       DOS:  cpu time    0.0006: real time    0.0210
    CHARGE:  cpu time    0.0145: real time    0.0277
    MIXING:  cpu time    0.0006: real time    0.0025
    --------------------------------------------
      LOOP:  cpu time    0.4295: real time    1.3325

 eigenvalue-minimisations  :  3048
 total energy-change (2. order) :-0.3913636E-03  (-0.2006112E-02)
 number of electron      36.0004675 magnetization 
 augmentation part       17.4467520 magnetization 

 Broyden mixing:
  rms(total) = 0.98856E-02    rms(broyden)= 0.98625E-02
  rms(prec ) = 0.16299E-01
  weight for this iteration     100.00

 eigenvalues of (default mixing * dielectric matrix)
  average eigenvalue GAMMA=   1.5545
  2.6274  2.2270  0.8859  0.8859  1.1465

 Free energy of the ion-electron system (eV)
  ---------------------------------------------------
  alpha Z        PSCENC =       182.88822945
  Ewald energy   TEWEN  =     -2730.71446512
  -Hartree energ DENC   =     -1438.98722895
  -exchange      EXHF   =         0.00000000
  -V(xc)+E(xc)   XCENC  =       171.64485605
  PAW double counting   =      3827.95886072    -4184.41596201
  entropy T*S    EENTRO =        -0.00000000
  eigenvalues    EBANDS =      -204.05718766
  atomic energy  EATOM  =      4357.38260945
  Solvation  Ediel_sol  =         0.00000000
  ---------------------------------------------------
  free energy    TOTEN  =       -18.30028806 eV

  energy without entropy =      -18.30028806  energy(sigma->0) =      -18.30028806


--------------------------------------------------------------------------------------------------------




----------------------------------------- Iteration    1(  11)  ---------------------------------------


    POTLOK:  cpu time    0.0024: real time    0.0065
    SETDIJ:  cpu time    0.0007: real time    0.0035
     EDDAV:  cpu time    0.4375: real time    1.3368
       DOS:  cpu time    0.0007: real time    0.0117
    CHARGE:  cpu time    0.0136: real time    0.0322
    MIXING:  cpu time    0.0006: real time    0.0020
    --------------------------------------------
      LOOP:  cpu time    0.4564: real time    1.3948

 eigenvalue-minimisations  :  3312
 total energy-change (2. order) :-0.1011989E-03  (-0.8734166E-04)
 number of electron      36.0004676 magnetization 
 augmentation part       17.4513742 magnetization 

 Broyden mixing:
  rms(total) = 0.26706E-02    rms(broyden)= 0.26703E-02
  rms(prec ) = 0.41592E-02
  weight for this iteration     100.00

 eigenvalues of (default mixing * dielectric matrix)
  average eigenvalue GAMMA=   1.4714
  2.6029  2.4072  0.8978  0.8978  1.0115  1.0115

 Free energy of the ion-electron system (eV)
  ---------------------------------------------------
  alpha Z        PSCENC =       182.88822945
  Ewald energy   TEWEN  =     -2730.71446512
  -Hartree energ DENC   =     -1438.58795795
  -exchange      EXHF   =         0.00000000
  -V(xc)+E(xc)   XCENC  =       171.62082387
  PAW double counting   =      3826.16735382    -4182.52155824
  entropy T*S    EENTRO =        -0.00000000
  eigenvalues    EBANDS =      -204.53542454
  atomic energy  EATOM  =      4357.38260945
  Solvation  Ediel_sol  =         0.00000000
  ---------------------------------------------------
  free energy    TOTEN  =       -18.30038926 eV

  energy without entropy =      -18.30038926  energy(sigma->0) =      -18.30038926


--------------------------------------------------------------------------------------------------------




----------------------------------------- Iteration    1(  12)  ---------------------------------------


    POTLOK:  cpu time    0.0024: real time    0.0066
    SETDIJ:  cpu time    0.0007: real time    0.0030
     EDDAV:  cpu time    0.4879: real time    1.4229
       DOS:  cpu time    0.0007: real time    0.0115
    CHARGE:  cpu time    0.0154: real time    0.0363
    MIXING:  cpu time    0.0007: real time    0.0021
    --------------------------------------------
      LOOP:  cpu time    0.5087: real time    1.4850

 eigenvalue-minimisations  :  3612
 total energy-change (2. order) : 0.7605920E-05  (-0.1177991E-04)
 number of electron      36.0004676 magnetization 
 augmentation part       17.4500583 magnetization 

 Broyden mixing:
  rms(total) = 0.10871E-02    rms(broyden)= 0.10871E-02
  rms(prec ) = 0.16189E-02
  weight for this iteration     100.00

 eigenvalues of (default mixing * dielectric matrix)
  average eigenvalue GAMMA=   1.4797
  2.5152  2.5152  1.5573  0.8814  0.8814  1.0038  1.0038

 Free energy of the ion-electron system (eV)
  ---------------------------------------------------
  alpha Z        PSCENC =       182.88822945
  Ewald energy   TEWEN  =     -2730.71446512
  -Hartree energ DENC   =     -1438.71462758
  -exchange      EXHF   =         0.00000000
  -V(xc)+E(xc)   XCENC  =       171.62632285
  PAW double counting   =      3826.04303241    -4182.47136804
  entropy T*S    EENTRO =        -0.00000000
  eigenvalues    EBANDS =      -204.34011506
  atomic energy  EATOM  =      4357.38260945
  Solvation  Ediel_sol  =         0.00000000
  ---------------------------------------------------
  free energy    TOTEN  =       -18.30038165 eV

  energy without entropy =      -18.30038165  energy(sigma->0) =      -18.30038165


--------------------------------------------------------------------------------------------------------




----------------------------------------- Iteration    1(  13)  ---------------------------------------


    POTLOK:  cpu time    0.0024: real time    0.0067
    SETDIJ:  cpu time    0.0007: real time    0.0030
     EDDAV:  cpu time    0.4754: real time    1.4528
       DOS:  cpu time    0.0007: real time    0.0116
    CHARGE:  cpu time    0.0136: real time    0.0323
    MIXING:  cpu time    0.0008: real time    0.0022
    --------------------------------------------
      LOOP:  cpu time    0.4946: real time    1.5113

 eigenvalue-minimisations  :  3696
 total energy-change (2. order) :-0.3576037E-05  (-0.1262246E-05)
 number of electron      36.0004676 magnetization 
 augmentation part       17.4498462 magnetization 

 Broyden mixing:
  rms(total) = 0.14128E-02    rms(broyden)= 0.14128E-02
  rms(prec ) = 0.24267E-02
  weight for this iteration     100.00

 eigenvalues of (default mixing * dielectric matrix)
  average eigenvalue GAMMA=   1.5974
  3.2712  2.4053  2.4053  0.8991  0.8991  0.9924  0.9924  0.9148

 Free energy of the ion-electron system (eV)
  ---------------------------------------------------
  alpha Z        PSCENC =       182.88822945
  Ewald energy   TEWEN  =     -2730.71446512
  -Hartree energ DENC   =     -1438.74807168
  -exchange      EXHF   =         0.00000000
  -V(xc)+E(xc)   XCENC  =       171.62815264
  PAW double counting   =      3826.05767664    -4182.47874582
  entropy T*S    EENTRO =        -0.00000000
  eigenvalues    EBANDS =      -204.31577079
  atomic energy  EATOM  =      4357.38260945
  Solvation  Ediel_sol  =         0.00000000
  ---------------------------------------------------
  free energy    TOTEN  =       -18.30038523 eV

  energy without entropy =      -18.30038523  energy(sigma->0) =      -18.30038523


--------------------------------------------------------------------------------------------------------




----------------------------------------- Iteration    1(  14)  ---------------------------------------


    POTLOK:  cpu time    0.0024: real time    0.0065
    SETDIJ:  cpu time    0.0009: real time    0.0038
     EDDAV:  cpu time    0.4564: real time    1.3355
       DOS:  cpu time    0.0007: real time    0.0019
    CHARGE:  cpu time    0.0134: real time    0.0408
    MIXING:  cpu time    0.0008: real time    0.0026
    --------------------------------------------
      LOOP:  cpu time    0.4755: real time    1.3934

 eigenvalue-minimisations  :  3300
 total energy-change (2. order) : 0.2690604E-05  (-0.1920099E-05)
 number of electron      36.0004676 magnetization 
 augmentation part       17.4504086 magnetization 

 Broyden mixing:
  rms(total) = 0.77128E-04    rms(broyden)= 0.74674E-04
  rms(prec ) = 0.11395E-03
  weight for this iteration     100.00

 eigenvalues of (default mixing * dielectric matrix)
  average eigenvalue GAMMA=   1.4971
  3.2890  2.5057  2.3617  0.9860  0.9860  0.9007  0.9007  0.7720  0.7720

 Free energy of the ion-electron system (eV)
  ---------------------------------------------------
  alpha Z        PSCENC =       182.88822945
  Ewald energy   TEWEN  =     -2730.71446512
  -Hartree energ DENC   =     -1438.71797794
  -exchange      EXHF   =         0.00000000
  -V(xc)+E(xc)   XCENC  =       171.62582890
  PAW double counting   =      3826.14556720    -4182.55641267
  entropy T*S    EENTRO =        -0.00000000
  eigenvalues    EBANDS =      -204.35376181
  atomic energy  EATOM  =      4357.38260945
  Solvation  Ediel_sol  =         0.00000000
  ---------------------------------------------------
  free energy    TOTEN  =       -18.30038254 eV

  energy without entropy =      -18.30038254  energy(sigma->0) =      -18.30038254


--------------------------------------------------------------------------------------------------------




----------------------------------------- Iteration    1(  15)  ---------------------------------------


    POTLOK:  cpu time    0.0024: real time    0.0061
    SETDIJ:  cpu time    0.0007: real time    0.0022
     EDDAV:  cpu time    0.2784: real time    0.8902
       DOS:  cpu time    0.0007: real time    0.0023
    --------------------------------------------
      LOOP:  cpu time    0.2904: real time    0.9322

 eigenvalue-minimisations  :  1728
 total energy-change (2. order) :-0.1455101E-07  (-0.3480218E-07)
 number of electron      36.0004676 magnetization 
 augmentation part       17.4504086 magnetization 

 Free energy of the ion-electron system (eV)
  ---------------------------------------------------
  alpha Z        PSCENC =       182.88822945
  Ewald energy   TEWEN  =     -2730.71446512
  -Hartree energ DENC   =     -1438.72070732
  -exchange      EXHF   =         0.00000000
  -V(xc)+E(xc)   XCENC  =       171.62597248
  PAW double counting   =      3826.15995565    -4182.57096136
  entropy T*S    EENTRO =        -0.00000000
  eigenvalues    EBANDS =      -204.35101578
  atomic energy  EATOM  =      4357.38260945
  Solvation  Ediel_sol  =         0.00000000
  ---------------------------------------------------
  free energy    TOTEN  =       -18.30038255 eV

  energy without entropy =      -18.30038255  energy(sigma->0) =      -18.30038255


--------------------------------------------------------------------------------------------------------




 the core state eigenenergies are
   1-  1s  -9519.4459  2s  -1152.8581  2p   -998.5167  3s   -124.2096  3p    -78.3922
     
   2-  1s  -9519.4459  2s  -1152.8581  2p   -998.5167  3s   -124.2096  3p    -78.3922
     
   3-  1s   -505.8612
   4-  1s   -505.8612
 
 E-fermi :  -0.7778     XC(G=0):  -9.9165     alpha+bet : -6.1626


 k-point     1 :       0.0000    0.0000    0.0000
  band No.  band energies     occupation 
      1     -17.2330      2.00000
      2     -16.7080      2.00000
      3      -5.8794      2.00000
      4      -5.7859      2.00000
      5      -5.7833      2.00000
      6      -5.7833      2.00000
      7      -5.2686      2.00000
      8      -5.2686      2.00000
      9      -5.1273      2.00000
     10      -5.1232      2.00000
     11      -5.0919      2.00000
     12      -5.0387      2.00000
     13      -3.7282      2.00000
     14      -2.3597      2.00000
     15      -2.3597      2.00000
     16      -0.8543      2.00000
     17      -0.8511      2.00000
     18      -0.8511      2.00000
     19      -0.6313      0.00000
     20       4.1995      0.00000
     21       6.0452      0.00000
     22       9.7533      0.00000
     23      11.0014      0.00000
     24      11.0033      0.00000

 k-point     2 :       0.1667    0.0000    0.0000
  band No.  band energies     occupation 
      1     -17.1988      2.00000
      2     -16.7436      2.00000
      3      -5.8891      2.00000
      4      -5.8093      2.00000
      5      -5.7585      2.00000
      6      -5.7585      2.00000
      7      -5.3178      2.00000
      8      -5.3178      2.00000
      9      -5.1382      2.00000
     10      -5.1360      2.00000
     11      -5.1175      2.00000
     12      -5.0443      2.00000
     13      -3.5781      2.00000
     14      -2.2478      2.00000
     15      -2.2478      2.00000
     16      -1.5692      2.00000
     17      -0.9465      2.00000
     18      -0.9465      2.00000
     19       0.2305      0.00000
     20       3.9611      0.00000
     21       6.3011      0.00000
     22       9.9136      0.00000
     23      10.4252      0.00000
     24      10.9776      0.00000

 k-point     3 :       0.3333    0.0000    0.0000
  band No.  band energies     occupation 
      1     -17.1040      2.00000
      2     -16.8408      2.00000
      3      -5.9070      2.00000
      4      -5.8613      2.00000
      5      -5.6858      2.00000
      6      -5.6858      2.00000
      7      -5.4367      2.00000
      8      -5.4367      2.00000
      9      -5.1904      2.00000
     10      -5.1661      2.00000
     11      -5.1021      2.00000
     12      -5.0598      2.00000
     13      -3.2236      2.00000
     14      -2.2309      2.00000
     15      -1.9548      2.00000
     16      -1.9548      2.00000
     17      -1.2091      2.00000
     18      -1.2091      2.00000
     19       1.2905      0.00000
     20       3.3021      0.00000
     21       7.0152      0.00000
     22       9.2615      0.00000
     23      10.4808      0.00000
     24      10.9630      0.00000

 k-point     4 :       0.5000    0.0000    0.0000
  band No.  band energies     occupation 
      1     -16.9728      2.00000
      2     -16.9728      2.00000
      3      -5.9025      2.00000
      4      -5.9025      2.00000
      5      -5.5722      2.00000
      6      -5.5722      2.00000
      7      -5.5722      2.00000
      8      -5.5722      2.00000
      9      -5.1938      2.00000
     10      -5.1938      2.00000
     11      -5.0809      2.00000
     12      -5.0809      2.00000
     13      -2.7707      2.00000
     14      -2.7707      2.00000
     15      -1.5749      2.00000
     16      -1.5749      2.00000
     17      -1.5749      2.00000
     18      -1.5749      2.00000
     19       2.3590      0.00000
     20       2.3590      0.00000
     21       8.0561      0.00000
     22       8.0561      0.00000
     23      11.0326      0.00000
     24      11.0326      0.00000

 k-point     5 :       0.0000    0.1250    0.0000
  band No.  band energies     occupation 
      1     -17.1946      2.00000
      2     -16.7079      2.00000
      3      -5.8279      2.00000
      4      -5.7980      2.00000
      5      -5.7658      2.00000
      6      -5.7594      2.00000
      7      -5.2985      2.00000
      8      -5.2806      2.00000
      9      -5.1304      2.00000
     10      -5.1251      2.00000
     11      -5.0515      2.00000
     12      -5.0122      2.00000
     13      -3.7748      2.00000
     14      -2.5948      2.00000
     15      -2.2683      2.00000
     16      -1.6601      2.00000
     17      -0.9645      2.00000
     18      -0.8808      2.00000
     19       0.2691      0.00000
     20       4.5562      0.00000
     21       6.0341      0.00000
     22       9.3856      0.00000
     23      10.2648      0.00000
     24      10.9354      0.00000

 k-point     6 :       0.1667    0.1250    0.0000
  band No.  band energies     occupation 
      1     -17.1625      2.00000
      2     -16.7408      2.00000
      3      -5.8335      2.00000
      4      -5.8016      2.00000
      5      -5.7489      2.00000
      6      -5.7443      2.00000
      7      -5.3467      2.00000
      8      -5.3294      2.00000
      9      -5.1343      2.00000
     10      -5.1232      2.00000
     11      -5.0675      2.00000
     12      -5.0514      2.00000
     13      -3.6691      2.00000
     14      -2.4316      2.00000
     15      -2.1667      2.00000
     16      -2.0138      2.00000
     17      -0.9686      2.00000
     18      -0.9429      2.00000
     19       0.6471      0.00000
     20       4.2659      0.00000
     21       6.3081      0.00000
     22       9.4370      0.00000
     23       9.6964      0.00000
     24      11.0608      0.00000

 k-point     7 :       0.3333    0.1250    0.0000
  band No.  band energies     occupation 
      1     -17.0740      2.00000
      2     -16.8303      2.00000
      3      -5.8477      2.00000
      4      -5.8308      2.00000
      5      -5.6852      2.00000
      6      -5.6807      2.00000
      7      -5.4578      2.00000
      8      -5.4450      2.00000
      9      -5.1570      2.00000
     10      -5.1494      2.00000
     11      -5.1043      2.00000
     12      -5.0600      2.00000
     13      -3.4002      2.00000
     14      -2.5539      2.00000
     15      -2.0348      2.00000
     16      -1.8986      2.00000
     17      -1.2107      2.00000
     18      -1.1622      2.00000
     19       1.5299      0.00000
     20       3.5360      0.00000
     21       6.9928      0.00000
     22       8.8109      0.00000
     23       9.7021      0.00000
     24      10.8634      0.00000

 k-point     8 :       0.5000    0.1250    0.0000
  band No.  band energies     occupation 
      1     -16.9524      2.00000
      2     -16.9524      2.00000
      3      -5.8524      2.00000
      4      -5.8524      2.00000
      5      -5.5801      2.00000
      6      -5.5801      2.00000
      7      -5.5766      2.00000
      8      -5.5766      2.00000
      9      -5.1741      2.00000
     10      -5.1741      2.00000
     11      -5.0802      2.00000
     12      -5.0802      2.00000
     13      -3.0240      2.00000
     14      -3.0240      2.00000
     15      -1.5675      2.00000
     16      -1.5675      2.00000
     17      -1.5485      2.00000
     18      -1.5485      2.00000
     19       2.5629      0.00000
     20       2.5629      0.00000
     21       7.8844      0.00000
     22       7.8844      0.00000
     23      10.2548      0.00000
     24      10.2548      0.00000

 k-point     9 :       0.0000    0.2500    0.0000
  band No.  band energies     occupation 
      1     -17.0914      2.00000
      2     -16.7164      2.00000
      3      -5.8047      2.00000
      4      -5.7296      2.00000
      5      -5.7172      2.00000
      6      -5.6970      2.00000
      7      -5.3756      2.00000
      8      -5.2360      2.00000
      9      -5.1455      2.00000
     10      -5.1135      2.00000
     11      -5.0816      2.00000
     12      -4.8927      2.00000
     13      -3.9700      2.00000
     14      -2.9019      2.00000
     15      -2.4727      2.00000
     16      -2.0278      2.00000
     17      -1.2950      2.00000
     18      -0.9760      2.00000
     19       1.3752      0.00000
     20       5.3860      0.00000
     21       5.8351      0.00000
     22       8.5340      0.00000
     23       9.0387      0.00000
     24      10.4170      0.00000

 k-point    10 :       0.1667    0.2500    0.0000
  band No.  band energies     occupation 
      1     -17.0661      2.00000
      2     -16.7411      2.00000
      3      -5.7848      2.00000
      4      -5.7250      2.00000
      5      -5.7052      2.00000
      6      -5.6966      2.00000
      7      -5.4182      2.00000
      8      -5.2840      2.00000
      9      -5.1342      2.00000
     10      -5.1191      2.00000
     11      -5.0710      2.00000
     12      -4.9441      2.00000
     13      -4.0119      2.00000
     14      -2.7453      2.00000
     15      -2.6142      2.00000
     16      -1.9527      2.00000
     17      -1.1636      2.00000
     18      -1.0423      2.00000
     19       1.5451      0.00000
     20       4.8769      0.00000
     21       6.1818      0.00000
     22       8.5169      0.00000
     23       8.7035      0.00000
     24      10.9168      0.00000

 k-point    11 :       0.3333    0.2500    0.0000
  band No.  band energies     occupation 
      1     -16.9963      2.00000
      2     -16.8087      2.00000
      3      -5.7397      2.00000
      4      -5.7190      2.00000
      5      -5.6724      2.00000
      6      -5.6669      2.00000
      7      -5.5089      2.00000
      8      -5.4057      2.00000
      9      -5.1312      2.00000
     10      -5.1065      2.00000
     11      -5.0660      2.00000
     12      -5.0634      2.00000
     13      -3.9127      2.00000
     14      -3.2159      2.00000
     15      -2.0531      2.00000
     16      -1.7513      2.00000
     17      -1.2262      2.00000
     18      -1.1718      2.00000
     19       2.1082      0.00000
     20       3.9847      0.00000
     21       6.6767      0.00000
     22       7.8026      0.00000
     23       9.2501      0.00000
     24      11.0485      0.00000

 k-point    12 :       0.5000    0.2500    0.0000
  band No.  band energies     occupation 
      1     -16.9021      2.00000
      2     -16.9021      2.00000
      3      -5.7220      2.00000
      4      -5.7220      2.00000
      5      -5.5996      2.00000
      6      -5.5996      2.00000
      7      -5.5614      2.00000
      8      -5.5614      2.00000
      9      -5.1288      2.00000
     10      -5.1288      2.00000
     11      -5.0775      2.00000
     12      -5.0775      2.00000
     13      -3.6280      2.00000
     14      -3.6280      2.00000
     15      -1.5129      2.00000
     16      -1.5129      2.00000
     17      -1.4845      2.00000
     18      -1.4845      2.00000
     19       2.9921      0.00000
     20       2.9921      0.00000
     21       7.2064      0.00000
     22       7.2064      0.00000
     23      10.1650      0.00000
     24      10.1650      0.00000

 k-point    13 :       0.0000    0.3750    0.0000
  band No.  band energies     occupation 
      1     -16.9580      2.00000
      2     -16.7539      2.00000
      3      -5.7191      2.00000
      4      -5.6631      2.00000
      5      -5.6472      2.00000
      6      -5.6417      2.00000
      7      -5.4712      2.00000
      8      -5.2007      2.00000
      9      -5.1536      2.00000
     10      -5.1161      2.00000
     11      -5.0832      2.00000
     12      -4.9732      2.00000
     13      -4.0521      2.00000
     14      -3.1674      2.00000
     15      -2.8061      2.00000
     16      -1.8085      2.00000
     17      -1.7136      2.00000
     18      -1.1490      2.00000
     19       2.5931      0.00000
     20       5.0771      0.00000
     21       6.3977      0.00000
     22       8.0381      0.00000
     23       8.0726      0.00000
[...]
  --------------------------------------------------------------------------------------
       0.000      -0.000       0.000
       0.000       0.000       0.000
       0.000       0.000       0.000

 plasma frequency squared (from intraband transitions)
  --------------------------------------------------------------------------------------


 plasma frequency squared (from interband transitions, int dw w eps(2)(w)
  --------------------------------------------------------------------------------------
     148.815      -0.000       0.000
       0.000     149.082       0.000
       0.000       0.000     149.082
  --------------------------------------------------------------------------------------
 plasma frequency squared  (valence only):     813.182

  frequency dependent IMAGINARY DIELECTRIC FUNCTION (independent particle, no local field effects)
     E(ev)      X         Y         Z        XY        YZ        ZX
  --------------------------------------------------------------------------------------
    0.000000    0.000000    0.000000    0.000000    0.000000    0.000000    0.000000
    0.339866   22.156931   21.351863   21.351863   -0.000000    0.000000   -0.000000
    0.679731    2.042805    2.095468    2.095468   -0.000000    0.000000   -0.000000
    1.019597    1.376839    2.268075    2.268075    0.000000    0.000000   -0.000000
    1.359462    2.310901    1.937307    1.937307    0.000000    0.000000   -0.000000
    1.699328    2.862733    3.136920    3.136920    0.000000    0.000000   -0.000000
    2.039193    3.041986    1.516741    1.516741   -0.000000    0.000000   -0.000000
    2.379059    0.755588    1.875251    1.875251   -0.000000    0.000000   -0.000000
    2.718924    3.335478    3.050135    3.050135    0.000000    0.000000   -0.000000
    3.058790    4.061707    1.728130    1.728130   -0.000000    0.000000   -0.000000
    3.398656    1.469660    1.712606    1.712606    0.000000    0.000000   -0.000000
    3.738521    1.040566    1.568051    1.568051    0.000000    0.000000   -0.000000
    4.078387    2.187352    3.102321    3.102321    0.000000    0.000000    0.000000
    4.418252    2.848925    2.139874    2.139874    0.000000    0.000000    0.000000
    4.758118    2.178764    2.688105    2.688105   -0.000000    0.000000   -0.000000
    5.097983    3.159358    2.730067    2.730067   -0.000000    0.000000    0.000000
    5.437849    3.032476    2.772059    2.772059   -0.000000    0.000000    0.000000
    5.777714    1.905448    2.472765    2.472765   -0.000000    0.000000    0.000000
    6.117580    2.911376    2.442581    2.442581    0.000000    0.000000    0.000000
    6.457446    3.355848    2.840236    2.840236    0.000000    0.000000    0.000000
    6.797311    2.478138    3.144338    3.144338    0.000000    0.000000    0.000000
    7.137177    1.977845    2.264715    2.264715    0.000000    0.000000    0.000000
    7.477042    2.240572    2.304680    2.304680    0.000000    0.000000   -0.000000
    7.816908    2.829589    3.129187    3.129187    0.000000    0.000000   -0.000000
    8.156773    3.664175    4.094010    4.094010    0.000000    0.000000    0.000000
    8.496639    5.273421    4.733114    4.733114    0.000000    0.000000    0.000000
    8.836505    4.747992    4.793213    4.793213    0.000000    0.000000    0.000000
    9.176370    3.272324    3.276712    3.276712    0.000000    0.000000    0.000000
    9.516236    2.380486    2.371098    2.371098   -0.000000    0.000000    0.000000
    9.856101    1.872868    1.708071    1.708071   -0.000000    0.000000    0.000000
   10.195967    1.933731    2.304414    2.304414   -0.000000    0.000000    0.000000
   10.535832    2.872900    2.906193    2.906193    0.000000    0.000000    0.000000
   10.875698    3.019985    2.654313    2.654313    0.000000    0.000000    0.000000
   11.215563    3.506627    3.473759    3.473759    0.000000    0.000000    0.000000
   11.555429    2.308834    3.087063    3.087063    0.000000    0.000000    0.000000
   11.895295    1.991046    1.665957    1.665957    0.000000    0.000000    0.000000
   12.235160    1.253424    1.070792    1.070792   -0.000000    0.000000    0.000000
   12.575026    0.566759    0.641855    0.641855   -0.000000    0.000000   -0.000000
   12.914891    0.456150    0.554113    0.554113   -0.000000    0.000000    0.000000
   13.254757    0.375416    0.404391    0.404391   -0.000000    0.000000    0.000000
   13.594622    0.440778    0.463252    0.463252   -0.000000    0.000000   -0.000000
   13.934488    0.428385    0.413962    0.413962    0.000000    0.000000    0.000000
   14.274353    0.345934    0.377013    0.377013   -0.000000    0.000000    0.000000
   14.614219    0.293671    0.301244    0.301244    0.000000    0.000000   -0.000000
   14.954085    0.257205    0.231192    0.231192   -0.000000    0.000000    0.000000
   15.293950    0.221995    0.258768    0.258768   -0.000000    0.000000    0.000000
   15.633816    0.169471    0.149536    0.149536   -0.000000    0.000000    0.000000
   15.973681    0.145494    0.119827    0.119827   -0.000000    0.000000    0.000000
   16.313547    0.051271    0.057779    0.057779    0.000000    0.000000    0.000000
   16.653412    0.031159    0.031187    0.031187   -0.000000    0.000000    0.000000
   16.993278    0.019606    0.020430    0.020430    0.000000    0.000000    0.000000
   17.333143    0.017589    0.017102    0.017102   -0.000000    0.000000    0.000000
   17.673009    0.015727    0.015498    0.015498   -0.000000    0.000000    0.000000
   18.012875    0.013661    0.014790    0.014790    0.000000    0.000000    0.000000
   18.352740    0.013540    0.012641    0.012641    0.000000    0.000000    0.000000
   18.692606    0.013718    0.014237    0.014237   -0.000000    0.000000    0.000000
   19.032471    0.010918    0.011034    0.011034    0.000000    0.000000    0.000000
   19.372337    0.010971    0.010529    0.010529   -0.000000    0.000000    0.000000
   19.712202    0.009496    0.009854    0.009854   -0.000000    0.000000    0.000000
   20.052068    0.008098    0.008408    0.008408   -0.000000    0.000000    0.000000
   20.391934    0.007023    0.006873    0.006873    0.000000    0.000000    0.000000
   20.731799    0.006506    0.006664    0.006664    0.000000    0.000000    0.000000
   21.071665    0.005573    0.005585    0.005585    0.000000    0.000000    0.000000
   21.411530    0.005062    0.005118    0.005118    0.000000    0.000000    0.000000
   21.751396    0.004775    0.004791    0.004791    0.000000    0.000000    0.000000
   22.091261    0.004509    0.004554    0.004554    0.000000    0.000000    0.000000
   22.431127    0.004464    0.004458    0.004458    0.000000    0.000000    0.000000
   22.770992    0.005358    0.005285    0.005285   -0.000000    0.000000    0.000000
   23.110858    0.006905    0.006785    0.006785    0.000000    0.000000    0.000000
   23.450724    0.005597    0.005715    0.005715    0.000000    0.000000    0.000000
   23.790589    0.005548    0.005507    0.005507   -0.000000    0.000000    0.000000
   24.130455    0.004696    0.004899    0.004899   -0.000000    0.000000    0.000000
   24.470320    0.004716    0.004436    0.004436   -0.000000    0.000000    0.000000
   24.810186    0.007336    0.007062    0.007062   -0.000000    0.000000    0.000000
   25.150051    0.009262    0.010010    0.010010   -0.000000    0.000000   -0.000000
   25.489917    0.011199    0.011613    0.011613    0.000000    0.000000   -0.000000
   25.829782    0.010346    0.010100    0.010100    0.000000    0.000000    0.000000
   26.169648    0.010443    0.008931    0.008931    0.000000    0.000000    0.000000
   26.509514    0.007864    0.009039    0.009039    0.000000    0.000000    0.000000
   26.849379    0.006559    0.006085    0.006085   -0.000000    0.000000    0.000000
   27.189245    0.006243    0.005190    0.005190   -0.000000    0.000000    0.000000
   27.529110    0.002827    0.002625    0.002625    0.000000    0.000000    0.000000
   27.868976    0.002357    0.003098    0.003098   -0.000000    0.000000    0.000000
   28.208841    0.001978    0.002269    0.002269    0.000000    0.000000    0.000000
   28.548707    0.001743    0.001776    0.001776    0.000000    0.000000    0.000000
   28.888572    0.001635    0.001646    0.001646    0.000000    0.000000    0.000000
   29.228438    0.001551    0.001557    0.001557    0.000000    0.000000    0.000000
   29.568304    0.001477    0.001482    0.001482    0.000000    0.000000    0.000000
   29.908169    0.001412    0.001416    0.001416    0.000000    0.000000    0.000000
   30.248035    0.001352    0.001355    0.001355    0.000000    0.000000    0.000000
   30.587900    0.001297    0.001300    0.001300    0.000000    0.000000    0.000000
   30.927766    0.001245    0.001248    0.001248    0.000000    0.000000    0.000000
   31.267631    0.001197    0.001199    0.001199    0.000000    0.000000    0.000000
   31.607497    0.001151    0.001154    0.001154    0.000000    0.000000    0.000000
   31.947362    0.001108    0.001111    0.001111    0.000000    0.000000    0.000000
   32.287228    0.001068    0.001070    0.001070    0.000000    0.000000    0.000000
   32.627094    0.001030    0.001032    0.001032    0.000000    0.000000    0.000000
   32.966959    0.000993    0.000996    0.000996    0.000000    0.000000    0.000000
   33.306825    0.000959    0.000961    0.000961    0.000000    0.000000    0.000000
   33.646690    0.000926    0.000928    0.000928    0.000000    0.000000    0.000000

  frequency dependent      REAL DIELECTRIC FUNCTION (independent particle, no local field effects)
     E(ev)      X         Y         Z        XY        YZ        ZX
  --------------------------------------------------------------------------------------
    0.000000   45.721833   47.858566   47.858566   -0.000000    0.000000    0.000000
    0.339866  -11.971301  -11.914146  -11.914146   -0.000000    0.000000    0.000000
    0.679731    0.289913    0.660665    0.660665   -0.000000    0.000000    0.000000
    1.019597    4.523589    5.365933    5.365933   -0.000000    0.000000    0.000000
    1.359462    3.227672    3.083010    3.083010   -0.000000    0.000000    0.000000
    1.699328    3.008954    1.900451    1.900451   -0.000000    0.000000    0.000000
    2.039193    1.826071    3.254617    3.254617    0.000000    0.000000    0.000000
    2.379059    3.613369    3.728803    3.728803    0.000000    0.000000   -0.000000
    2.718924    3.915757    3.221195    3.221195    0.000000    0.000000   -0.000000
    3.058790    3.687181    3.320593    3.320593    0.000000    0.000000   -0.000000
    3.398656    2.482208    2.275648    2.275648   -0.000000    0.000000    0.000000
    3.738521    2.953156    3.799662    3.799662    0.000000    0.000000    0.000000
    4.078387    3.886747    4.027702    4.027702    0.000000    0.000000    0.000000
    4.418252    4.227217    2.827513    2.827513   -0.000000    0.000000   -0.000000
    4.758118    2.195645    2.934732    2.934732   -0.000000    0.000000    0.000000
    5.097983    3.923654    3.133526    3.133526   -0.000000    0.000000    0.000000
    5.437849    2.395215    3.085196    3.085196   -0.000000    0.000000    0.000000
    5.777714    2.424671    1.634009    1.634009    0.000000    0.000000   -0.000000
    6.117580    2.320119    2.075363    2.075363    0.000000    0.000000    0.000000
    6.457446    2.897273    2.603761    2.603761    0.000000    0.000000   -0.000000
    6.797311    1.299630    2.192979    2.192979    0.000000    0.000000   -0.000000
    7.137177    2.292193    1.975029    1.975029    0.000000    0.000000   -0.000000
    7.477042    2.183873    2.130990    2.130990   -0.000000    0.000000    0.000000
    7.816908    3.415996    3.296581    3.296581    0.000000    0.000000    0.000000
    8.156773    2.721489    2.784650    2.784650    0.000000    0.000000   -0.000000
    8.496639    1.205526    1.246510    1.246510    0.000000    0.000000   -0.000000
    8.836505   -0.327052   -0.039578   -0.039578    0.000000    0.000000   -0.000000
    9.176370   -1.085525   -1.058434   -1.058434   -0.000000    0.000000   -0.000000
    9.516236   -0.021271   -0.290542   -0.290542   -0.000000    0.000000    0.000000
    9.856101   -0.362633   -0.197693   -0.197693    0.000000    0.000000   -0.000000
   10.195967    0.255196    0.314058    0.314058    0.000000    0.000000    0.000000
   10.535832    0.950516    0.651995    0.651995    0.000000    0.000000   -0.000000
   10.875698    0.244643    0.192732    0.192732   -0.000000    0.000000   -0.000000
   11.215563   -1.099788   -0.675323   -0.675323    0.000000    0.000000   -0.000000
   11.555429   -1.371159   -1.444601   -1.444601   -0.000000    0.000000    0.000000
   11.895295   -1.413898   -1.629039   -1.629039   -0.000000    0.000000   -0.000000
   12.235160   -1.854239   -1.684395   -1.684395   -0.000000    0.000000   -0.000000
   12.575026   -1.229204   -1.108767   -1.108767   -0.000000    0.000000   -0.000000
   12.914891   -0.843894   -0.801415   -0.801415   -0.000000    0.000000   -0.000000
   13.254757   -0.602009   -0.658091   -0.658091   -0.000000    0.000000   -0.000000
   13.594622   -0.419202   -0.406809   -0.406809    0.000000    0.000000   -0.000000
   13.934488   -0.381768   -0.353325   -0.353325   -0.000000    0.000000   -0.000000
   14.274353   -0.315987   -0.313735   -0.313735   -0.000000    0.000000   -0.000000
   14.614219   -0.221286   -0.229025   -0.229025   -0.000000    0.000000   -0.000000
   14.954085   -0.156160   -0.152503   -0.152503   -0.000000    0.000000   -0.000000
   15.293950   -0.147585   -0.168707   -0.168707   -0.000000    0.000000   -0.000000
   15.633816   -0.075556   -0.102445   -0.102445   -0.000000    0.000000   -0.000000
   15.973681    0.025414    0.016351    0.016351   -0.000000    0.000000   -0.000000
   16.313547    0.042910    0.028373    0.028373   -0.000000    0.000000   -0.000000
   16.653412    0.133670    0.129498    0.129498   -0.000000    0.000000   -0.000000
   16.993278    0.203116    0.198596    0.198596   -0.000000    0.000000   -0.000000
   17.333143    0.262402    0.258587    0.258587   -0.000000    0.000000   -0.000000
   17.673009    0.309054    0.305776    0.305776   -0.000000    0.000000   -0.000000
   18.012875    0.348215    0.345222    0.345222   -0.000000    0.000000   -0.000000
   18.352740    0.386019    0.382873    0.382873   -0.000000    0.000000   -0.000000
   18.692606    0.415777    0.415681    0.415681   -0.000000    0.000000   -0.000000
   19.032471    0.445436    0.442397    0.442397   -0.000000    0.000000   -0.000000
   19.372337    0.473685    0.471861    0.471861   -0.000000    0.000000   -0.000000
   19.712202    0.497234    0.495880    0.495880   -0.000000    0.000000   -0.000000
   20.052068    0.520374    0.518611    0.518611   -0.000000    0.000000   -0.000000
   20.391934    0.541400    0.540017    0.540017   -0.000000    0.000000   -0.000000
   20.731799    0.561308    0.560018    0.560018   -0.000000    0.000000   -0.000000
   21.071665    0.579822    0.578594    0.578594   -0.000000    0.000000   -0.000000
   21.411530    0.597304    0.596092    0.596092   -0.000000    0.000000   -0.000000
   21.751396    0.613684    0.612586    0.612586   -0.000000    0.000000   -0.000000
   22.091261    0.629029    0.627912    0.627912   -0.000000    0.000000   -0.000000
   22.431127    0.643701    0.642657    0.642657   -0.000000    0.000000   -0.000000
   22.770992    0.657966    0.657057    0.657057   -0.000000    0.000000   -0.000000
   23.110858    0.668186    0.667099    0.667099   -0.000000    0.000000   -0.000000
   23.450724    0.679341    0.678648    0.678648   -0.000000    0.000000   -0.000000
   23.790589    0.690868    0.690056    0.690056   -0.000000    0.000000   -0.000000
   24.130455    0.701835    0.701088    0.701088   -0.000000    0.000000   -0.000000
   24.470320    0.712638    0.711880    0.711880   -0.000000    0.000000   -0.000000
   24.810186    0.723882    0.723924    0.723924   -0.000000    0.000000   -0.000000
   25.150051    0.734571    0.730530    0.730530   -0.000000    0.000000   -0.000000
   25.489917    0.734152    0.736312    0.736312   -0.000000    0.000000   -0.000000
   25.829782    0.746164    0.744101    0.744101   -0.000000    0.000000   -0.000000
   26.169648    0.745629    0.746542    0.746542   -0.000000    0.000000   -0.000000
   26.509514    0.755103    0.753846    0.753846   -0.000000    0.000000   -0.000000
   26.849379    0.760925    0.760677    0.760677   -0.000000    0.000000   -0.000000
   27.189245    0.766404    0.766348    0.766348   -0.000000    0.000000   -0.000000
   27.529110    0.773633    0.773939    0.773939   -0.000000    0.000000   -0.000000
   27.868976    0.781031    0.781057    0.781057   -0.000000    0.000000   -0.000000
   28.208841    0.787301    0.786770    0.786770   -0.000000    0.000000   -0.000000
   28.548707    0.793455    0.792960    0.792960   -0.000000    0.000000   -0.000000
   28.888572    0.799181    0.798745    0.798745   -0.000000    0.000000   -0.000000
   29.228438    0.804589    0.804179    0.804179   -0.000000    0.000000   -0.000000
   29.568304    0.809731    0.809338    0.809338   -0.000000    0.000000   -0.000000
   29.908169    0.814639    0.814259    0.814259   -0.000000    0.000000   -0.000000
   30.248035    0.819333    0.818965    0.818965   -0.000000    0.000000   -0.000000
   30.587900    0.823833    0.823475    0.823475   -0.000000    0.000000   -0.000000
   30.927766    0.828150    0.827802    0.827802   -0.000000    0.000000   -0.000000
   31.267631    0.832298    0.831959    0.831959   -0.000000    0.000000   -0.000000
   31.607497    0.836287    0.835957    0.835957   -0.000000    0.000000   -0.000000
   31.947362    0.840126    0.839805    0.839805   -0.000000    0.000000   -0.000000
   32.287228    0.843824    0.843511    0.843511   -0.000000    0.000000   -0.000000
   32.627094    0.847388    0.847083    0.847083   -0.000000    0.000000   -0.000000
   32.966959    0.850826    0.850528    0.850528   -0.000000    0.000000   -0.000000
   33.306825    0.854143    0.853852    0.853852   -0.000000    0.000000   -0.000000
   33.646690    0.857346    0.857062    0.857062   -0.000000    0.000000   -0.000000
 
 The outermost node in the dielectric function lies at epsilon=  16.2


--------------------------------------------------------------------------------------------------------


    OPTICS:  cpu time    0.4531: real time    1.2852
    4ORBIT:  cpu time    0.0000: real time    0.0000
 


 total charge     
 
# of ion     s       p       d       tot
----------------------------------------
  1        0.414   0.317   9.837  10.568
  2        0.414   0.317   9.837  10.568
  3        1.554   3.311   0.000   4.865
  4        1.554   3.311   0.000   4.865
------------------------------------------------
tot        3.935   7.257  19.674  30.866
 

 total amount of memory used by VASP on root node    64282. kBytes
========================================================================

   base      :      30000. kBytes
   nonl-proj :      27264. kBytes
   fftplans  :        137. kBytes
   grid      :        576. kBytes
   one-center:         62. kBytes
   wavefun   :       6243. kBytes
 
  
  
 General timing and accounting informations for this job:
 ========================================================
  
                  Total CPU time used (sec):       10.963
                            User time (sec):        9.581
                          System time (sec):        1.382
                         Elapsed time (sec):       33.939
  
                   Maximum memory used (kb):   100630528.
                   Average memory used (kb):           0.
  
                          Minor page faults:        25010
                          Major page faults:          546
                 Voluntary context switches:           32
