unknown system                          
   1.0000000000000000     
     3.853923    0.000000    0.000000
     1.926961    3.337595    0.000000
     1.926961    1.112532    3.146715
   Zn   S 
     1     1
Direct
  0.000000  0.000000  0.000000
  0.750000  0.750000  0.750000

   32   32   32
 -.20504128431E+01 -.25953862851E+01 -.32767505270E+01 -.46818197687E+01 -.59527964039E+01
 -.74677860880E+01 -.90547289038E+01 -.88664126562E+01 -.41255078083E+01 -.30113578312E-01
 0.17154071057E+01 0.35110578457E+01 0.42561468613E+01 0.50310414141E+01 0.51952188730E+01
 0.55132448986E+01 0.54073740541E+01 0.55247571438E+01 0.52100168477E+01 0.50537190800E+01
 0.42373185517E+01 0.35215603021E+01 0.17131936795E+01 -.25126676710E-01 -.41317188544E+01
 -.88858484434E+01 -.90540138420E+01 -.74647040613E+01 -.59517966546E+01 -.46829586296E+01
 -.32775600190E+01 -.25958343801E+01 -.25953862851E+01 -.30261088556E+01 -.41951765328E+01
 -.54014417258E+01 -.66986937036E+01 -.84804048422E+01 -.95515758954E+01 -.68382213315E+01
 -.14527882338E+01 0.76971706225E+00 0.27804148817E+01 0.39314357032E+01 0.48238864272E+01
 0.52838084947E+01 0.56093541052E+01 0.57250650671E+01 0.57283659076E+01 0.55985648300E+01
 0.52763689190E+01 0.48037746805E+01 0.39474140091E+01 0.27596112797E+01 0.79387089587E+00
 -.14791092306E+01 -.68029531486E+01 -.95662588108E+01 -.83569516013E+01 -.67056743509E+01
 -.52856321384E+01 -.40378773975E+01 -.31561563326E+01 -.24725192985E+01 -.32767505270E+01
 -.41951765328E+01 -.51608932460E+01 -.63537078630E+01 -.80499109938E+01 -.94670344540E+01
 -.84810804465E+01 -.32071843563E+01 0.25246978932E-01 0.18656298927E+01 0.35518232636E+01
 0.43907664504E+01 0.52209248982E+01 0.54813849166E+01 0.58639301794E+01 0.57771311755E+01
 0.58646472277E+01 0.54833461747E+01 0.52364093395E+01 0.43946099920E+01 0.35581570058E+01
 0.18522358497E+01 0.57163203484E-01 -.32656639213E+01 -.84910880835E+01 -.94402329613E+01
 -.78845611502E+01 -.63669116931E+01 -.50912277384E+01 -.41898001726E+01 -.33831067490E+01
 -.31997093348E+01 -.46818197687E+01 -.54014417258E+01 -.63537078630E+01 -.79044867412E+01
 -.91980531572E+01 -.92896498423E+01 -.46985281802E+01 -.70844489451E+00 0.11651809233E+01
 0.30089281790E+01 0.40284548661E+01 0.49196160869E+01 0.53711505675E+01 0.57394248720E+01
 0.58543831730E+01 0.58720136955E+01 0.57245331952E+01 0.53801789483E+01 0.48995632798E+01
 0.40267159562E+01 0.30093940428E+01 0.11547555736E+01 -.68415056612E+00 -.47095893613E+01
 -.92042111403E+01 -.93030536733E+01 -.78835892603E+01 -.62999638413E+01 -.53534123810E+01
 -.46396186892E+01 -.42771212315E+01 -.41273180432E+01 -.59527964039E+01 -.66986937036E+01
 -.80499109938E+01 -.91980531572E+01 -.95128310974E+01 -.54969199982E+01 -.11882718773E+01
 0.66106493047E+00 0.25391111941E+01 0.36594364440E+01 0.46387320342E+01 0.51469720261E+01
 0.56254573632E+01 0.57589263952E+01 0.59151576864E+01 0.57547996332E+01 0.56312058600E+01
 0.51428495544E+01 0.46571512293E+01 0.36527633378E+01 0.25646066348E+01 0.61644961722E+00
 -.11735870560E+01 -.55436689000E+01 -.94163698977E+01 -.90814133219E+01 -.81075251371E+01
 -.66387050050E+01 -.60279978791E+01 -.54477754078E+01 -.52334641895E+01 -.53793649744E+01
 -.74677860880E+01 -.84804048422E+01 -.94670344540E+01 -.92896498423E+01 -.54969199982E+01
 -.13963117052E+01 0.36046320790E+00 0.21975052615E+01 0.34130071696E+01 0.43528310883E+01
 0.49781220466E+01 0.54269813187E+01 0.57050451658E+01 0.58185515006E+01 0.58478363853E+01
 0.56758307212E+01 0.54587639395E+01 0.49388647446E+01 0.43886277944E+01 0.33469421438E+01
 0.22738496531E+01 0.32622929957E+00 -.13624582775E+01 -.55448760151E+01 -.92608023896E+01
 -.93665868368E+01 -.85542315962E+01 -.72031092610E+01 -.66859152469E+01 -.63945223928E+01
 -.64680317386E+01 -.67457396100E+01 -.90547289038E+01 -.95515758954E+01 -.84810804465E+01
 -.46985281802E+01 -.11882718773E+01 0.36046320790E+00 0.21488299921E+01 0.32479075369E+01
 0.41985468976E+01 0.47905501849E+01 0.53229265467E+01 0.55576302705E+01 0.58064371653E+01
 0.57865231932E+01 0.58103927786E+01 0.55489619221E+01 0.53351693562E+01 0.47768468002E+01
 0.42328480523E+01 0.32188792353E+01 0.21403791571E+01 0.35549286380E+00 -.12108939725E+01
 -.46010499825E+01 -.87708016334E+01 -.91056474396E+01 -.93552392782E+01 -.85044631372E+01
 -.80754910448E+01 -.78642211168E+01 -.78533117371E+01 -.83120584107E+01 -.88664126562E+01
 -.68382213315E+01 -.32071843563E+01 -.70844489451E+00 0.66106493047E+00 0.21975052615E+01
 0.32479075369E+01 0.40866704662E+01 0.47600373348E+01 0.51773947132E+01 0.55230155117E+01
 0.56973418010E+01 0.58165762090E+01 0.57962395054E+01 0.57171474881E+01 0.55046001088E+01
 0.51966839621E+01 0.47310749588E+01 0.41073149797E+01 0.32676758840E+01 0.21692888569E+01
 0.76262421383E+00 -.92962986469E+00 -.28558643504E+01 -.71466703666E+01 -.90912203808E+01
 -.89674760642E+01 -.91870912405E+01 -.88600668444E+01 -.91018887847E+01 -.92336718433E+01
 -.94504711164E+01 -.41255078083E+01 -.14527882338E+01 0.25246978932E-01 0.11651809233E+01
 0.25391111941E+01 0.34130071696E+01 0.41985468976E+01 0.47600373348E+01 0.51362786282E+01
 0.54808996286E+01 0.56510689283E+01 0.58007401587E+01 0.58054896215E+01 0.58019010111E+01
 0.56490844722E+01 0.54817278416E+01 0.51401379781E+01 0.47630387221E+01 0.41489904801E+01
 0.34684872058E+01 0.24388965440E+01 0.13062258459E+01 -.13622716102E+00 -.15125480952E+01
 -.36344462511E+01 -.69660491909E+01 -.84504212046E+01 -.88605741595E+01 -.89997250577E+01
 -.88113502520E+01 -.81694894130E+01 -.66209010829E+01 -.30113578312E-01 0.76971706225E+00
 0.18656298927E+01 0.30089281790E+01 0.36594364440E+01 0.43528310883E+01 0.47905501849E+01
 0.51773947132E+01 0.54808996286E+01 0.56409326230E+01 0.57807469860E+01 0.58188401411E+01
 0.58388214791E+01 0.57602857238E+01 0.56635206244E+01 0.54519052818E+01 0.52058536059E+01
 0.48052791065E+01 0.43549035108E+01 0.36816863063E+01 0.29649466270E+01 0.19401248688E+01
 0.87309538503E+00 -.32516065956E+00 -.13312888207E+01 -.24788391732E+01 -.41179026520E+01
 -.49979714103E+01 -.49967122159E+01 -.42179525010E+01 -.29017993084E+01 -.12874135568E+01
 0.17154071057E+01 0.27804148817E+01 0.35518232636E+01 0.40284548661E+01 0.46387320342E+01
 0.49781220466E+01 0.53229265467E+01 0.55230155117E+01 0.56510689283E+01 0.57807469860E+01
 0.58223377583E+01 0.58563472158E+01 0.58224124461E+01 0.57789562025E+01 0.56590803333E+01
 0.55178945928E+01 0.52784022083E+01 0.50006230982E+01 0.45776623004E+01 0.41136727095E+01
 0.34356121139E+01 0.27399541879E+01 0.18647943443E+01 0.10339707670E+01 0.16228578341E+00
 -.48434071159E+00 -.68288608088E+00 -.78945482794E+00 -.64349772347E+00 -.24209077687E+00
 0.36500893966E+00 0.92488355220E+00 0.35110578457E+01 0.39314357032E+01 0.43907664504E+01
 0.49196160869E+01 0.51469720261E+01 0.54269813187E+01 0.55576302705E+01 0.56973418010E+01
 0.58007401587E+01 0.58188401411E+01 0.58563472158E+01 0.58421472321E+01 0.58353916405E+01
 0.57773705252E+01 0.57164933318E+01 0.55872117116E+01 0.54335781928E+01 0.51783463882E+01
 0.48885345619E+01 0.44454708818E+01 0.40000534164E+01 0.33785598868E+01 0.27463150481E+01
 0.20526943666E+01 0.15190357834E+01 0.10707300593E+01 0.68514954508E+00 0.66027088778E+00
 0.90960748343E+00 0.13833885964E+01 0.19685348012E+01 0.27958021850E+01 0.42561468613E+01
 0.48238864272E+01 0.52209248982E+01 0.53711505675E+01 0.56254573632E+01 0.57050451658E+01
 0.58064371653E+01 0.58165762090E+01 0.58054896215E+01 0.58388214791E+01 0.58224124461E+01
 0.58353916405E+01 0.58158364589E+01 0.58123766216E+01 0.57621427447E+01 0.57060543864E+01
 0.55758229519E+01 0.54148157244E+01 0.51304690466E+01 0.48213154661E+01 0.43294770902E+01
 0.38534175299E+01 0.33049821051E+01 0.27930788473E+01 0.22773538177E+01 0.19681671188E+01
 0.19646416572E+01 0.20895322370E+01 0.23921272323E+01 0.28250527871E+01 0.33958593732E+01
 0.38108986258E+01 0.50310414141E+01 0.52838084947E+01 0.54813849166E+01 0.57394248720E+01
 0.57589263952E+01 0.58185515006E+01 0.57865231932E+01 0.57962395054E+01 0.58019010111E+01
 0.57602857238E+01 0.57789562025E+01 0.57773705252E+01 0.58123766216E+01 0.58190031331E+01
 0.58368128102E+01 0.57949421769E+01 0.57251033826E+01 0.55462497920E+01 0.53171826596E+01
 0.49127447049E+01 0.45068637658E+01 0.39284935350E+01 0.33342218642E+01 0.27766411535E+01
 0.24101192748E+01 0.21739039728E+01 0.20869234149E+01 0.23108553106E+01 0.27430293332E+01
 0.33123066152E+01 0.38409204300E+01 0.45014656740E+01 0.51952188730E+01 0.56093541052E+01
 0.58639301794E+01 0.58543831730E+01 0.59151576864E+01 0.58478363853E+01 0.58103927786E+01
 0.57171474881E+01 0.56490844722E+01 0.56635206244E+01 0.56590803333E+01 0.57164933318E+01
 0.57621427447E+01 0.58368128102E+01 0.58648613154E+01 0.58734855818E+01 0.57790843187E+01
 0.56109148759E+01 0.52612532170E+01 0.48429650113E+01 0.41727187585E+01 0.35133055712E+01
 0.28419891685E+01 0.22211889708E+01 0.17221883783E+01 0.15690117445E+01 0.18066257314E+01
 0.22504034145E+01 0.28596393399E+01 0.35390861990E+01 0.42958341911E+01 0.47932921994E+01
 0.55132448986E+01 0.57250650671E+01 0.57771311755E+01 0.58720136955E+01 0.57547996332E+01
 0.56758307212E+01 0.55489619221E+01 0.55046001088E+01 0.54817278416E+01 0.54519052818E+01
 0.55178945928E+01 0.55872117116E+01 0.57060543864E+01 0.57949421769E+01 0.58734855818E+01
 0.58506013062E+01 0.57349543563E+01 0.54242641283E+01 0.49723874504E+01 0.42282856589E+01
 0.34534691868E+01 0.24443338330E+01 0.14107230884E+01 0.68833664450E+00 0.39182885052E+00
 0.38103867466E+00 0.65403826181E+00 0.14016708477E+01 0.24119730480E+01 0.33887404632E+01
 0.41812063660E+01 0.49650403207E+01 0.54073740541E+01 0.57283659076E+01 0.58646472277E+01
 0.57245331952E+01 0.56312058600E+01 0.54587639395E+01 0.53351693562E+01 0.51966839621E+01
 0.51401379781E+01 0.52058536059E+01 0.52784022083E+01 0.54335781928E+01 0.55758229519E+01
 0.57251033826E+01 0.57790843187E+01 0.57349543563E+01 0.54795302513E+01 0.50206414500E+01
 0.42269101331E+01 0.32707111201E+01 0.18840150721E+01 0.70031407402E+00 0.12286884024E+00
 -.17523875972E+00 -.30712074795E+00 -.18440612776E+00 0.17963670314E+00 0.72549925891E+00
 0.19393921626E+01 0.32701387036E+01 0.43124735547E+01 0.50140536633E+01 0.55247571438E+01
 0.55985648300E+01 0.54833461747E+01 0.53801789483E+01 0.51428495544E+01 0.49388647446E+01
 0.47768468002E+01 0.47310749588E+01 0.47630387221E+01 0.48052791065E+01 0.50006230982E+01
 0.51783463882E+01 0.54148157244E+01 0.55462497920E+01 0.56109148759E+01 0.54242641283E+01
 0.50206414500E+01 0.42043671925E+01 0.31191502747E+01 0.14751979301E+01 0.36666332768E+00
 -.27597355137E+00 -.12989268236E+01 -.22185888721E+01 -.22375924679E+01 -.13822843586E+01
 -.33681625806E+00 0.43835772390E+00 0.14088773280E+01 0.30914739913E+01 0.41588682848E+01
 0.49826842569E+01 0.52100168477E+01 0.52763689190E+01 0.52364093395E+01 0.48995632798E+01
 0.46571512293E+01 0.43886277944E+01 0.42328480523E+01 0.41073149797E+01 0.41489904801E+01
 0.43549035108E+01 0.45776623004E+01 0.48885345619E+01 0.51304690466E+01 0.53171826596E+01
 0.52612532170E+01 0.49723874504E+01 0.42269101331E+01 0.31191502747E+01 0.13536498661E+01
 0.23320937065E+00 -.86528371513E+00 -.33803594809E+01 -.58096451642E+01 -.67355232213E+01
 -.57717859474E+01 -.34681300995E+01 -.10439474959E+01 0.35040491936E+00 0.14250183800E+01
 0.30550728792E+01 0.43629205212E+01 0.49539292928E+01 0.50537190800E+01 0.48037746805E+01
 0.43946099920E+01 0.40267159562E+01 0.36527633378E+01 0.33469421438E+01 0.32188792353E+01
 0.32676758840E+01 0.34684872058E+01 0.36816863063E+01 0.41136727095E+01 0.44454708818E+01
 0.48213154661E+01 0.49127447049E+01 0.48429650113E+01 0.42282856589E+01 0.32707111201E+01
 0.14751979301E+01 0.23320937065E+00 -.11933767435E+01 -.49479207689E+01 -.88396582648E+01
 -.11078584872E+02 -.11018671274E+02 -.86527036380E+01 -.48927180724E+01 -.14640337625E+01
 0.35579801785E+00 0.14413219349E+01 0.32185416387E+01 0.42058541123E+01 0.47558560856E+01
 0.42373185517E+01 0.39474140091E+01 0.35581570058E+01 0.30093940428E+01 0.25646066348E+01
 0.22738496531E+01 0.21403791571E+01 0.21692888569E+01 0.24388965440E+01 0.29649466270E+01
 0.34356121139E+01 0.40000534164E+01 0.43294770902E+01 0.45068637658E+01 0.41727187585E+01
 0.34534691868E+01 0.18840150721E+01 0.36666332768E+00 -.86528371513E+00 -.49479207689E+01
 -.99398959741E+01 -.13642881327E+02 -.15072383779E+02 -.13640893905E+02 -.97980176230E+01
 -.49127013944E+01 -.11273875335E+01 0.56258403799E+00 0.18370705850E+01 0.34390299922E+01
 0.42725514900E+01 0.45186748580E+01 0.35215603021E+01 0.27596112797E+01 0.18522358497E+01
 0.11547555736E+01 0.61644961722E+00 0.32622929957E+00 0.35549286380E+00 0.76262421383E+00
 0.13062258459E+01 0.19401248688E+01 0.27399541879E+01 0.33785598868E+01 0.38534175299E+01
 0.39284935350E+01 0.35133055712E+01 0.24443338330E+01 0.70031407402E+00 -.27597355137E+00
 -.33803594809E+01 -.88396582648E+01 -.13642881327E+02 -.16589622835E+02 -.16445428497E+02
 -.13566551583E+02 -.85945411478E+01 -.36166082607E+01 -.36552870160E+00 0.89316352901E+00
 0.22926259293E+01 0.36330410424E+01 0.38357854432E+01 0.38261054935E+01 0.17131936795E+01
 0.79387089587E+00 0.57163203484E-01 -.68415056612E+00 -.11735870560E+01 -.13624582775E+01
 -.12108939725E+01 -.92962986469E+00 -.13622716102E+00 0.87309538503E+00 0.18647943443E+01
 0.27463150481E+01 0.33049821051E+01 0.33342218642E+01 0.28419891685E+01 0.14107230884E+01
 0.12286884024E+00 -.12989268236E+01 -.58096451642E+01 -.11078584872E+02 -.15072383779E+02
 -.16445428497E+02 -.14964693130E+02 -.10969295960E+02 -.58389565853E+01 -.15824388800E+01
 0.38924551807E+00 0.13479978468E+01 0.28399551148E+01 0.33014351760E+01 0.33409274294E+01
 0.28119869927E+01 -.25126676710E-01 -.14791092306E+01 -.32656639213E+01 -.47095893613E+01
 -.55436689000E+01 -.55448760151E+01 -.46010499825E+01 -.28558643504E+01 -.15125480952E+01
 -.32516065956E+00 0.10339707670E+01 0.20526943666E+01 0.27930788473E+01 0.27766411535E+01
 0.22211889708E+01 0.68833664450E+00 -.17523875972E+00 -.22185888721E+01 -.67355232213E+01
 -.11018671274E+02 -.13640893905E+02 -.13566551583E+02 -.10969295960E+02 -.66659723548E+01
 -.24856254615E+01 -.10154580413E+00 0.78974520063E+00 0.20303555522E+01 0.28375988381E+01
 0.27791139972E+01 0.20022086405E+01 0.88194417156E+00 -.41317188544E+01 -.68029531486E+01
 -.84910880835E+01 -.92042111403E+01 -.94163698977E+01 -.92608023896E+01 -.87708016334E+01
 -.71466703666E+01 -.36344462511E+01 -.13312888207E+01 0.16228578341E+00 0.15190357834E+01
 0.22773538177E+01 0.24101192748E+01 0.17221883783E+01 0.39182885052E+00 -.30712074795E+00
 -.22375924679E+01 -.57717859474E+01 -.86527036380E+01 -.97980176230E+01 -.85945411478E+01
 -.58389565853E+01 -.24856254615E+01 -.35258811678E+00 0.63413685311E+00 0.15241799354E+01
 0.24825493632E+01 0.23413022826E+01 0.14032266948E+01 0.33683019365E+00 -.12732615881E+01
 -.88858484434E+01 -.95662588108E+01 -.94402329613E+01 -.93030536733E+01 -.90814133219E+01
 -.93665868368E+01 -.91056474396E+01 -.90912203808E+01 -.69660491909E+01 -.24788391732E+01
 -.48434071159E+00 0.10707300593E+01 0.19681671188E+01 0.21739039728E+01 0.15690117445E+01
 0.38103867466E+00 -.18440612776E+00 -.13822843586E+01 -.34681300995E+01 -.48927180724E+01
 -.49127013944E+01 -.36166082607E+01 -.15824388800E+01 -.10154580413E+00 0.63413685311E+00
 0.13342923170E+01 0.22101890231E+01 0.20543631780E+01 0.94369699024E+00 -.21289872270E+00
 -.28483739397E+01 -.66366948889E+01 -.90540138420E+01 -.83569516013E+01 -.78845611502E+01
 -.78835892603E+01 -.81075251371E+01 -.85542315962E+01 -.93552392782E+01 -.89674760642E+01
 -.84504212046E+01 -.41179026520E+01 -.68288608088E+00 0.68514954508E+00 0.19646416572E+01
 0.20869234149E+01 0.18066257314E+01 0.65403826181E+00 0.17963670314E+00 -.33681625806E+00
 -.10439474959E+01 -.14640337625E+01 -.11273875335E+01 -.36552870160E+00 0.38924551807E+00
 0.78974520063E+00 0.15241799354E+01 0.22101890231E+01 0.20069380410E+01 0.67747958790E+00
 -.61115322698E+00 -.42107752277E+01 -.81386610680E+01 -.94307483406E+01 -.74647040613E+01
 -.67056743509E+01 -.63669116931E+01 -.62999638413E+01 -.66387050050E+01 -.72031092610E+01
 -.85044631372E+01 -.91870912405E+01 -.88605741595E+01 -.49979714103E+01 -.78945482794E+00
 0.66027088778E+00 0.20895322370E+01 0.23108553106E+01 0.22504034145E+01 0.14016708477E+01
 0.72549925891E+00 0.43835772390E+00 0.35040491937E+00 0.35579801785E+00 0.56258403799E+00
 0.89316352901E+00 0.13479978468E+01 0.20303555522E+01 0.24825493632E+01 0.20543631780E+01
 0.67747958790E+00 -.79082907757E+00 -.49502518119E+01 -.88728719241E+01 -.92651637491E+01
 -.84411017210E+01 -.59517966546E+01 -.52856321384E+01 -.50912277384E+01 -.53534123810E+01
 -.60279978791E+01 -.66859152469E+01 -.80754910448E+01 -.88600668444E+01 -.89997250577E+01
 -.49967122159E+01 -.64349772347E+00 0.90960748343E+00 0.23921272323E+01 0.27430293332E+01
 0.28596393399E+01 0.24119730480E+01 0.19393921626E+01 0.14088773280E+01 0.14250183800E+01
 0.14413219349E+01 0.18370705850E+01 0.22926259293E+01 0.28399551148E+01 0.28375988381E+01
 0.23413022826E+01 0.94369699024E+00 -.61115322698E+00 -.49502518119E+01 -.90769645471E+01
 -.89756557605E+01 -.80201280878E+01 -.67445613488E+01 -.46829586296E+01 -.40378773975E+01
 -.41898001726E+01 -.46396186892E+01 -.54477754078E+01 -.63945223928E+01 -.78642211168E+01
 -.91018887847E+01 -.88113502520E+01 -.42179525010E+01 -.24209077687E+00 0.13833885964E+01
 0.28250527871E+01 0.33123066152E+01 0.35390861990E+01 0.33887404632E+01 0.32701387036E+01
 0.30914739913E+01 0.30550728792E+01 0.32185416387E+01 0.34390299922E+01 0.36330410424E+01
 0.33014351760E+01 0.27791139972E+01 0.14032266948E+01 -.21289872270E+00 -.42107752277E+01
 -.88728719241E+01 -.89756557605E+01 -.78829145484E+01 -.64552673066E+01 -.54929136026E+01
 -.32775600190E+01 -.31561563326E+01 -.33831067490E+01 -.42771212315E+01 -.52334641895E+01
 -.64680317386E+01 -.78533117371E+01 -.92336718433E+01 -.81694894130E+01 -.29017993084E+01
 0.36500893966E+00 0.19685348012E+01 0.33958593732E+01 0.38409204300E+01 0.42958341911E+01
 0.41812063660E+01 0.43124735547E+01 0.41588682848E+01 0.43629205212E+01 0.42058541123E+01
 0.42725514900E+01 0.38357854432E+01 0.33409274294E+01 0.20022086405E+01 0.33683019365E+00
 -.28483739397E+01 -.81386610680E+01 -.92651637491E+01 -.80201280878E+01 -.64552673066E+01
 -.53028729829E+01 -.42839811816E+01 -.25958343801E+01 -.24725192985E+01 -.31997093348E+01
 -.41273180432E+01 -.53793649744E+01 -.67457396100E+01 -.83120584107E+01 -.94504711164E+01
 -.66209010829E+01 -.12874135568E+01 0.92488355220E+00 0.27958021850E+01 0.38108986258E+01
 0.45014656740E+01 0.47932921994E+01 0.49650403207E+01 0.50140536633E+01 0.49826842569E+01
 0.49539292928E+01 0.47558560856E+01 0.45186748580E+01 0.38261054935E+01 0.28119869927E+01
 0.88194417156E+00 -.12732615881E+01 -.66366948889E+01 -.94307483406E+01 -.84411017210E+01
 -.67445613488E+01 -.54929136026E+01 -.42839811816E+01 -.30674278075E+01 -.25953879609E+01
 -.30261137517E+01 -.41951808631E+01 -.54014446603E+01 -.66986966767E+01 -.84804071584E+01
 -.95515758135E+01 -.68382201209E+01 -.14527884403E+01 0.76971614231E+00 0.27804155520E+01
 0.39314371784E+01 0.48238863223E+01 0.52838074894E+01 0.56093545189E+01 0.57250662339E+01
 0.57283655608E+01 0.55985636515E+01 0.52763691261E+01 0.48037755290E+01 0.39474132938E+01
 0.27596098614E+01 0.79387112933E+00 -.14791081278E+01 -.68029535198E+01 -.95662597468E+01
 -.83569502888E+01 -.67056708968E+01 -.52856286586E+01 -.40378738839E+01 -.31561520075E+01
 -.24725164653E+01 -.30261137517E+01 -.39170285658E+01 -.49739306719E+01 -.59774877215E+01
 -.77810206860E+01 -.92077473039E+01 -.87152115262E+01 -.36287896668E+01 -.34481358503E-01
 0.17560863276E+01 0.35136918974E+01 0.43516419244E+01 0.52050829836E+01 0.54656975670E+01
 0.58540040899E+01 0.57680956947E+01 0.58537526445E+01 0.54693858108E+01 0.52189071435E+01
 0.43530791393E+01 0.35213627624E+01 0.17608650074E+01 -.51665830064E-01 -.36068436033E+01
 -.86712505364E+01 -.94286438625E+01 -.78476482441E+01 -.61887692887E+01 -.49153765181E+01
 -.40363626932E+01 -.30927462019E+01 -.28758225692E+01 -.41951808631E+01 -.49739306719E+01
 -.57849911451E+01 -.75568114620E+01 -.89206486203E+01 -.95182532276E+01 -.54745479269E+01
 -.94389246922E+00 0.94408250272E+00 0.28885679280E+01 0.39482159727E+01 0.48719256326E+01
 0.53425053968E+01 0.57167837479E+01 0.58430670393E+01 0.58512434045E+01 0.57106681163E+01
 0.53438263661E+01 0.48582877556E+01 0.39475822464E+01 0.28830812446E+01 0.93616686010E+00
 -.93133308997E+00 -.54883961962E+01 -.94812493443E+01 -.89112847208E+01 -.74987401025E+01
 -.59308193039E+01 -.50648082128E+01 -.40375541989E+01 -.36255163227E+01 -.36422615349E+01
 -.54014446603E+01 -.59774877215E+01 -.75568114620E+01 -.86888346849E+01 -.96662918992E+01
 -.65794123836E+01 -.18069647488E+01 0.32837441461E+00 0.22901791666E+01 0.35478230641E+01
 0.45174179803E+01 0.51236694856E+01 0.55576854171E+01 0.57677263907E+01 0.58603672453E+01
 0.57653166416E+01 0.55605935013E+01 0.51231619488E+01 0.45305302445E+01 0.35440999813E+01
 0.23002580383E+01 0.33592989419E+00 -.17701488981E+01 -.67117110416E+01 -.96513893186E+01
 -.88604177804E+01 -.74769465733E+01 -.60154861503E+01 -.54181741288E+01 -.47334847160E+01
 -.47602282646E+01 -.48606357029E+01 -.66986966767E+01 -.77810206860E+01 -.89206486203E+01
 -.96662918992E+01 -.70885279663E+01 -.22855494955E+01 -.71600185856E-01 0.18825733485E+01
 0.31739283262E+01 0.42190724758E+01 0.48754949542E+01 0.53807920263E+01 0.56511620242E+01
 0.58049862984E+01 0.57990064675E+01 0.56574003232E+01 0.53759012972E+01 0.48756206862E+01
 0.42109331027E+01 0.31729238500E+01 0.18681721222E+01 -.95657202854E-01 -.21952419814E+01
 -.71613217782E+01 -.96077310247E+01 -.90255017474E+01 -.77515694769E+01 -.66384821813E+01
 -.61615131139E+01 -.56866115023E+01 -.58462247954E+01 -.60400880628E+01 -.84804071584E+01
 -.92077473039E+01 -.95182532276E+01 -.65794123836E+01 -.22855494955E+01 -.11418073924E+00
 0.15573568796E+01 0.29813877114E+01 0.39373893812E+01 0.47148547848E+01 0.51715702739E+01
 0.55566431397E+01 0.57049005612E+01 0.58039283802E+01 0.57119957692E+01 0.55416848383E+01
 0.51938354554E+01 0.46878350989E+01 0.39798939895E+01 0.29461307007E+01 0.16399613222E+01
 -.23463539681E+00 -.21722545656E+01 -.68221057827E+01 -.93633766238E+01 -.93440463398E+01
 -.86852614896E+01 -.75033270893E+01 -.71664531343E+01 -.68619144818E+01 -.72332548207E+01
 -.75730020200E+01 -.95515758135E+01 -.87152115262E+01 -.54745479269E+01 -.18069647488E+01
 -.71600185856E-01 0.15573568796E+01 0.29116279252E+01 0.38321537743E+01 0.45706039635E+01
 0.50397070655E+01 0.54541403128E+01 0.56141266972E+01 0.57938323529E+01 0.57148433695E+01
 0.56938663049E+01 0.53733197029E+01 0.51231041017E+01 0.44827132512E+01 0.39090049426E+01
 0.27877809172E+01 0.17099738718E+01 -.18497433418E+00 -.16455579867E+01 -.54753507639E+01
 -.90132534612E+01 -.90500927664E+01 -.92447638264E+01 -.87397226377E+01 -.85091014258E+01
 -.83062029224E+01 -.87348404129E+01 -.92025692217E+01 -.68382201209E+01 -.36287896668E+01
 -.94389246922E+00 0.32837441461E+00 0.18825733485E+01 0.29813877114E+01 0.38321537743E+01
 0.44797449517E+01 0.50084914886E+01 0.53413996928E+01 0.55935547459E+01 0.57167482892E+01
 0.57724555506E+01 0.57183153399E+01 0.55903785052E+01 0.53463656290E+01 0.49979222480E+01
 0.45053752575E+01 0.38408126490E+01 0.29734720343E+01 0.18178711833E+01 0.42677010264E+00
 -.11934586452E+01 -.31353481484E+01 -.71413023549E+01 -.90558030755E+01 -.91297566148E+01
 -.93184151400E+01 -.92996683588E+01 -.94212654683E+01 -.93396767431E+01 -.88080937376E+01
 -.14527884403E+01 -.34481358503E-01 0.94408250272E+00 0.22901791666E+01 0.31739283262E+01
 0.39373893812E+01 0.45706039635E+01 0.50084914886E+01 0.53189940983E+01 0.55541737518E+01
 0.56968803525E+01 0.57696488447E+01 0.57662129750E+01 0.57005645104E+01 0.55494425233E+01
 0.53283661305E+01 0.49900769162E+01 0.45541737165E+01 0.39521197006E+01 0.32130433380E+01
 0.22401347580E+01 0.10715472478E+01 -.24333554938E+00 -.15419664729E+01 -.32679276399E+01
 -.60185060058E+01 -.75619522036E+01 -.80082030883E+01 -.79946990334E+01 -.73021993119E+01
 -.58980188685E+01 -.37384669575E+01 0.76971614231E+00 0.17560863276E+01 0.28885679280E+01
 0.35478230641E+01 0.42190724758E+01 0.47148547848E+01 0.50397070655E+01 0.53413996928E+01
 0.55541737518E+01 0.56909805714E+01 0.57642451130E+01 0.57944131922E+01 0.57649647990E+01
 0.56901157837E+01 0.55522987833E+01 0.53489596765E+01 0.50681469988E+01 0.46879585323E+01
 0.42018642655E+01 0.35717454331E+01 0.28099188213E+01 0.18855028249E+01 0.86464099732E+00
 -.17617223374E+00 -.10691070246E+01 -.17415411335E+01 -.26777581989E+01 -.31215485952E+01
 -.28116264775E+01 -.20232576312E+01 -.89847008593E+00 0.73035064905E-01 0.27804155520E+01
 0.35136918974E+01 0.39482159727E+01 0.45174179803E+01 0.48754949542E+01 0.51715702739E+01
 0.54541403128E+01 0.55935547459E+01 0.56968803525E+01 0.57642451130E+01 0.58026715499E+01
 0.57965957608E+01 0.57693954774E+01 0.56957796240E+01 0.55882904932E+01 0.54231130611E+01
 0.51965173710E+01 0.48917029706E+01 0.44959702031E+01 0.40056302022E+01 0.34115283094E+01
 0.27141089561E+01 0.19500493487E+01 0.12187889113E+01 0.53624969592E+00 -.32947764126E-01
 -.12889206312E+00 -.43183260891E-01 0.17025200363E+00 0.60362014869E+00 0.10897266346E+01
 0.18032175477E+01 0.39314371784E+01 0.43516419244E+01 0.48719256326E+01 0.51236694856E+01
 0.53807920263E+01 0.55566431397E+01 0.56141266972E+01 0.57167482892E+01 0.57696488447E+01
 0.57944131922E+01 0.57965957608E+01 0.57950280163E+01 0.57656022892E+01 0.57250117529E+01
 0.56464192048E+01 0.55344062050E+01 0.53678123124E+01 0.51382834236E+01 0.48332577090E+01
 0.44438305614E+01 0.39723963136E+01 0.34557547553E+01 0.28944564283E+01 0.23269709223E+01
 0.18947279855E+01 0.16440854361E+01 0.14300180122E+01 0.14815913276E+01 0.18217849005E+01
 0.22924576040E+01 0.29598529131E+01 0.35703181725E+01 0.48238863223E+01 0.52050829836E+01
 0.53425053968E+01 0.55576854171E+01 0.56511620242E+01 0.57049005612E+01 0.57938323529E+01
 0.57724555506E+01 0.57662129750E+01 0.57649647990E+01 0.57693954774E+01 0.57656022892E+01
 0.57695010140E+01 0.57543019076E+01 0.57265019632E+01 0.56598312146E+01 0.55467300638E+01
 0.53700538047E+01 0.51181379671E+01 0.47903208410E+01 0.43966435992E+01 0.39295303965E+01
 0.34701846766E+01 0.30721842422E+01 0.27208260040E+01 0.25082216939E+01 0.25878221020E+01
 0.28083787110E+01 0.31025762674E+01 0.35291610293E+01 0.38911399671E+01 0.42843827318E+01
 0.52838074894E+01 0.54656975670E+01 0.57167837479E+01 0.57677263907E+01 0.58049862984E+01
 0.58039283802E+01 0.57148433695E+01 0.57183153399E+01 0.57005645104E+01 0.56901157837E+01
 0.56957796240E+01 0.57250117529E+01 0.57543019076E+01 0.57886208941E+01 0.57987800626E+01
 0.57772295324E+01 0.56998013084E+01 0.55469774208E+01 0.53084143384E+01 0.49747784718E+01
 0.45534390018E+01 0.41131532485E+01 0.36480169523E+01 0.32218891145E+01 0.29746634275E+01
 0.28979133806E+01 0.29333591789E+01 0.31716962264E+01 0.36003428782E+01 0.40481096596E+01
 0.45943143407E+01 0.50710352732E+01 0.56093545189E+01 0.58540040899E+01 0.58430670393E+01
 0.58603672453E+01 0.57990064675E+01 0.57119957692E+01 0.56938663049E+01 0.55903785052E+01
 0.55494425233E+01 0.55522987833E+01 0.55882904932E+01 0.56464192048E+01 0.57265019632E+01
 0.57987800626E+01 0.58513543646E+01 0.58518137208E+01 0.57735382088E+01 0.55967371980E+01
 0.52969601386E+01 0.48832007924E+01 0.43833393743E+01 0.37956073903E+01 0.32654015040E+01
 0.28757874767E+01 0.26172558429E+01 0.26073551273E+01 0.28866744829E+01 0.33352869112E+01
 0.38457447139E+01 0.44251270060E+01 0.48630093128E+01 0.52076479701E+01 0.57250662339E+01
 0.57680956947E+01 0.58512434045E+01 0.57653166416E+01 0.56574003232E+01 0.55416848383E+01
 0.53733197029E+01 0.53463656290E+01 0.53283661305E+01 0.53489596765E+01 0.54231130611E+01
 0.55344062050E+01 0.56598312146E+01 0.57772295324E+01 0.58518137208E+01 0.58462694924E+01
 0.57312501676E+01 0.54620946941E+01 0.50395249511E+01 0.44535710457E+01 0.37425739209E+01
 0.30554594610E+01 0.24000542123E+01 0.18947667521E+01 0.17510669240E+01 0.19233655793E+01
 0.23669752738E+01 0.29924849801E+01 0.37165253493E+01 0.44041480161E+01 0.50482341824E+01
 0.55521405344E+01 0.57283655608E+01 0.58537526445E+01 0.57106681163E+01 0.55605935013E+01
 0.53759012972E+01 0.51938354554E+01 0.51231041017E+01 0.49979222480E+01 0.49900769162E+01
 0.50681469988E+01 0.51965173710E+01 0.53678123124E+01 0.55467300638E+01 0.56998013084E+01
 0.57735382088E+01 0.57312501676E+01 0.55056350583E+01 0.50896763264E+01 0.44361830838E+01
 0.36089998672E+01 0.26780084052E+01 0.16651107353E+01 0.91465809740E+00 0.60520133612E+00
 0.56622019747E+00 0.90609221448E+00 0.16432395662E+01 0.27314693809E+01 0.36674082344E+01
 0.44601906711E+01 0.50974668614E+01 0.54138659722E+01 0.55985636515E+01 0.54693858108E+01
 0.53438263661E+01 0.51231619488E+01 0.48756206862E+01 0.46878350989E+01 0.44827132512E+01
 0.45053752575E+01 0.45541737165E+01 0.46879585323E+01 0.48917029706E+01 0.51382834236E+01
 0.53700538047E+01 0.55469774208E+01 0.55967371980E+01 0.54620946941E+01 0.50896763264E+01
 0.44297206701E+01 0.35078996392E+01 0.23499904542E+01 0.10717239750E+01 0.33044879979E+00
 0.48184103233E-01 -.47057485648E-01 0.12862965007E+00 0.44788250326E+00 0.10502762835E+01
 0.21666339836E+01 0.35601633777E+01 0.43767800317E+01 0.50725223174E+01 0.55669961735E+01
 0.52763691261E+01 0.52189071435E+01 0.48582877556E+01 0.45305302445E+01 0.42109331027E+01
 0.39798939895E+01 0.39090049426E+01 0.38408126490E+01 0.39521197006E+01 0.42018642655E+01
 0.44959702031E+01 0.48332577090E+01 0.51181379671E+01 0.53084143384E+01 0.52969601386E+01
 0.50395249511E+01 0.44361830838E+01 0.35078996392E+01 0.22143935534E+01 0.78677441320E+00
 0.91128682476E-01 -.34190869324E+00 -.82223077823E+00 -.83965954369E+00 -.43762330254E+00
 0.23385282037E+00 0.96305087206E+00 0.21329372523E+01 0.35537074433E+01 0.44928789125E+01