********************************************************************************
*                       GENERAL UTILITY LATTICE PROGRAM                        *
*                                 Julian Gale                                  *
*                       Curtin Institute for Computation                       *
*                           Department of Chemistry                            *
*                    Curtin University, Western Australia                      *
********************************************************************************
* Version = 5.0.0 * Last modified =   4th July 2018                            *
********************************************************************************
*  single       - perform a single point run                                   *
*  efg          - calculate electrostatic electric field gradient              *
********************************************************************************
*  sod bulk electrostatics                                                     *
********************************************************************************


  Job Started  at 11:17.50 26th July       2018                               

  Number of CPUs =     1


  Total number of configurations input =      1

********************************************************************************
*  Input for Configuration =   1                                               *
********************************************************************************

  Formula = Si48O96Xe                                                   

  Number of irreducible atoms/shells =     145


  Total number atoms/shells =     145

  Dimensionality = 3               :  Bulk   



  Cartesian lattice vectors (Angstroms) :

        9.008700    0.000000    0.000000
        0.000000   12.740200    0.000000
        0.000000    0.000000   25.480400

  Cell parameters (Angstroms/Degrees):

  a =       9.0087    alpha =  90.0000
  b =      12.7402    beta  =  90.0000
  c =      25.4804    gamma =  90.0000

  Initial cell volume =        2924.452770 Angs**3

  Temperature of configuration =  0.000     K 

  Pressure of configuration =         0.000 GPa 

  Fractional coordinates of asymmetric unit :

--------------------------------------------------------------------------------
   No.  Atomic       x           y          z         Charge      Occupancy
        Label      (Frac)      (Frac)     (Frac)        (e)         (Frac)  
--------------------------------------------------------------------------------
      1 Si    c    0.250000    0.750000    0.625000     3.20000    1.000000    
      2 Si    c    0.250000    0.250000    0.875000     3.20000    1.000000    
      3 Si    c    0.750000    0.250000    0.625000     3.20000    1.000000    
      4 Si    c    0.750000    0.750000    0.875000     3.20000    1.000000    
      5 Si    c    0.250000    0.250000    0.375000     3.20000    1.000000    
      6 Si    c    0.250000    0.750000    0.125000     3.20000    1.000000    
      7 Si    c    0.750000    0.750000    0.375000     3.20000    1.000000    
      8 Si    c    0.750000    0.250000    0.125000     3.20000    1.000000    
      9 Si    c    0.250000    0.750000    0.375000     3.20000    1.000000    
     10 Si    c    0.250000    0.250000    0.125000     3.20000    1.000000    
     11 Si    c    0.750000    0.250000    0.375000     3.20000    1.000000    
     12 Si    c    0.750000    0.750000    0.125000     3.20000    1.000000    
     13 Si    c    0.250000    0.250000    0.625000     3.20000    1.000000    
     14 Si    c    0.250000    0.750000    0.875000     3.20000    1.000000    
     15 Si    c    0.750000    0.750000    0.625000     3.20000    1.000000    
     16 Si    c    0.750000    0.250000    0.875000     3.20000    1.000000    
     17 Si    c    0.000000    0.375000    0.687500     3.20000    1.000000    
     18 Si    c    0.000000    0.875000    0.937500     3.20000    1.000000    
     19 Si    c    0.000000    0.375000    0.187500     3.20000    1.000000    
     20 Si    c    0.000000    0.875000    0.437500     3.20000    1.000000    
     21 Si    c    0.000000    0.125000    0.562500     3.20000    1.000000    
     22 Si    c    0.000000    0.625000    0.812500     3.20000    1.000000    
     23 Si    c    0.000000    0.125000    0.062500     3.20000    1.000000    
     24 Si    c    0.000000    0.625000    0.312500     3.20000    1.000000    
     25 Si    c    0.000000    0.625000    0.687500     3.20000    1.000000    
     26 Si    c    0.000000    0.125000    0.937500     3.20000    1.000000    
     27 Si    c    0.000000    0.625000    0.187500     3.20000    1.000000    
     28 Si    c    0.000000    0.125000    0.437500     3.20000    1.000000    
     29 Si    c    0.000000    0.875000    0.562500     3.20000    1.000000    
     30 Si    c    0.000000    0.375000    0.812500     3.20000    1.000000    
     31 Si    c    0.000000    0.875000    0.062500     3.20000    1.000000    
     32 Si    c    0.000000    0.375000    0.312500     3.20000    1.000000    
     33 Si    c    0.500000    0.875000    0.312500     3.20000    1.000000    
     34 Si    c    0.500000    0.375000    0.062500     3.20000    1.000000    
     35 Si    c    0.500000    0.875000    0.812500     3.20000    1.000000    
     36 Si    c    0.500000    0.375000    0.562500     3.20000    1.000000    
     37 Si    c    0.500000    0.625000    0.437500     3.20000    1.000000    
     38 Si    c    0.500000    0.125000    0.187500     3.20000    1.000000    
     39 Si    c    0.500000    0.625000    0.937500     3.20000    1.000000    
     40 Si    c    0.500000    0.125000    0.687500     3.20000    1.000000    
     41 Si    c    0.500000    0.125000    0.312500     3.20000    1.000000    
     42 Si    c    0.500000    0.625000    0.062500     3.20000    1.000000    
     43 Si    c    0.500000    0.125000    0.812500     3.20000    1.000000    
     44 Si    c    0.500000    0.625000    0.562500     3.20000    1.000000    
     45 Si    c    0.500000    0.375000    0.437500     3.20000    1.000000    
     46 Si    c    0.500000    0.875000    0.187500     3.20000    1.000000    
     47 Si    c    0.500000    0.375000    0.937500     3.20000    1.000000    
     48 Si    c    0.500000    0.875000    0.687500     3.20000    1.000000    
     49 O     c    0.852000    0.324000    0.662000    -1.60000    1.000000    
     50 O     c    0.852000    0.824000    0.912000    -1.60000    1.000000    
     51 O     c    0.852000    0.324000    0.162000    -1.60000    1.000000    
     52 O     c    0.852000    0.824000    0.412000    -1.60000    1.000000    
     53 O     c    0.352000    0.824000    0.662000    -1.60000    1.000000    
     54 O     c    0.352000    0.324000    0.912000    -1.60000    1.000000    
     55 O     c    0.352000    0.824000    0.162000    -1.60000    1.000000    
     56 O     c    0.352000    0.324000    0.412000    -1.60000    1.000000    
     57 O     c    0.148000    0.676000    0.662000    -1.60000    1.000000    
     58 O     c    0.148000    0.176000    0.912000    -1.60000    1.000000    
     59 O     c    0.148000    0.676000    0.162000    -1.60000    1.000000    
     60 O     c    0.148000    0.176000    0.412000    -1.60000    1.000000    
     61 O     c    0.648000    0.176000    0.662000    -1.60000    1.000000    
     62 O     c    0.648000    0.676000    0.912000    -1.60000    1.000000    
     63 O     c    0.648000    0.176000    0.162000    -1.60000    1.000000    
     64 O     c    0.648000    0.676000    0.412000    -1.60000    1.000000    
     65 O     c    0.648000    0.824000    0.338000    -1.60000    1.000000    
     66 O     c    0.648000    0.324000    0.088000    -1.60000    1.000000    
     67 O     c    0.648000    0.824000    0.838000    -1.60000    1.000000    
     68 O     c    0.648000    0.324000    0.588000    -1.60000    1.000000    
     69 O     c    0.148000    0.324000    0.338000    -1.60000    1.000000    
     70 O     c    0.148000    0.824000    0.088000    -1.60000    1.000000    
     71 O     c    0.148000    0.324000    0.838000    -1.60000    1.000000    
     72 O     c    0.148000    0.824000    0.588000    -1.60000    1.000000    
     73 O     c    0.352000    0.176000    0.338000    -1.60000    1.000000    
     74 O     c    0.352000    0.676000    0.088000    -1.60000    1.000000    
     75 O     c    0.352000    0.176000    0.838000    -1.60000    1.000000    
     76 O     c    0.352000    0.676000    0.588000    -1.60000    1.000000    
     77 O     c    0.852000    0.676000    0.338000    -1.60000    1.000000    
     78 O     c    0.852000    0.176000    0.088000    -1.60000    1.000000    
     79 O     c    0.852000    0.676000    0.838000    -1.60000    1.000000    
     80 O     c    0.852000    0.176000    0.588000    -1.60000    1.000000    
     81 O     c    0.648000    0.176000    0.338000    -1.60000    1.000000    
     82 O     c    0.648000    0.676000    0.088000    -1.60000    1.000000    
     83 O     c    0.648000    0.176000    0.838000    -1.60000    1.000000    
     84 O     c    0.648000    0.676000    0.588000    -1.60000    1.000000    
     85 O     c    0.148000    0.676000    0.338000    -1.60000    1.000000    
     86 O     c    0.148000    0.176000    0.088000    -1.60000    1.000000    
     87 O     c    0.148000    0.676000    0.838000    -1.60000    1.000000    
     88 O     c    0.148000    0.176000    0.588000    -1.60000    1.000000    
     89 O     c    0.352000    0.824000    0.338000    -1.60000    1.000000    
     90 O     c    0.352000    0.324000    0.088000    -1.60000    1.000000    
     91 O     c    0.352000    0.824000    0.838000    -1.60000    1.000000    
     92 O     c    0.352000    0.324000    0.588000    -1.60000    1.000000    
     93 O     c    0.852000    0.324000    0.338000    -1.60000    1.000000    
     94 O     c    0.852000    0.824000    0.088000    -1.60000    1.000000    
     95 O     c    0.852000    0.324000    0.838000    -1.60000    1.000000    
     96 O     c    0.852000    0.824000    0.588000    -1.60000    1.000000    
     97 O     c    0.852000    0.676000    0.662000    -1.60000    1.000000    
     98 O     c    0.852000    0.176000    0.912000    -1.60000    1.000000    
     99 O     c    0.852000    0.676000    0.162000    -1.60000    1.000000    
    100 O     c    0.852000    0.176000    0.412000    -1.60000    1.000000    
    101 O     c    0.352000    0.176000    0.662000    -1.60000    1.000000    
    102 O     c    0.352000    0.676000    0.912000    -1.60000    1.000000    
    103 O     c    0.352000    0.176000    0.162000    -1.60000    1.000000    
    104 O     c    0.352000    0.676000    0.412000    -1.60000    1.000000    
    105 O     c    0.148000    0.324000    0.662000    -1.60000    1.000000    
    106 O     c    0.148000    0.824000    0.912000    -1.60000    1.000000    
    107 O     c    0.148000    0.324000    0.162000    -1.60000    1.000000    
    108 O     c    0.148000    0.824000    0.412000    -1.60000    1.000000    
    109 O     c    0.648000    0.824000    0.662000    -1.60000    1.000000    
    110 O     c    0.648000    0.324000    0.912000    -1.60000    1.000000    
    111 O     c    0.648000    0.824000    0.162000    -1.60000    1.000000    
    112 O     c    0.648000    0.324000    0.412000    -1.60000    1.000000    
    113 O     c    0.500000    0.852000    0.750000    -1.60000    1.000000    
    114 O     c    0.500000    0.352000    0.000000    -1.60000    1.000000    
    115 O     c    0.500000    0.852000    0.250000    -1.60000    1.000000    
    116 O     c    0.500000    0.352000    0.500000    -1.60000    1.000000    
    117 O     c    0.500000    0.148000    0.750000    -1.60000    1.000000    
    118 O     c    0.500000    0.648000    0.000000    -1.60000    1.000000    
    119 O     c    0.500000    0.148000    0.250000    -1.60000    1.000000    
    120 O     c    0.500000    0.648000    0.500000    -1.60000    1.000000    
    121 O     c    0.000000    0.352000    0.250000    -1.60000    1.000000    
    122 O     c    0.000000    0.852000    0.000000    -1.60000    1.000000    
    123 O     c    0.000000    0.352000    0.750000    -1.60000    1.000000    
    124 O     c    0.000000    0.852000    0.500000    -1.60000    1.000000    
    125 O     c    0.000000    0.648000    0.250000    -1.60000    1.000000    
    126 O     c    0.000000    0.148000    0.000000    -1.60000    1.000000    
    127 O     c    0.000000    0.648000    0.750000    -1.60000    1.000000    
    128 O     c    0.000000    0.148000    0.500000    -1.60000    1.000000    
    129 O     c    0.500000    0.000000    0.676000    -1.60000    1.000000    
    130 O     c    0.500000    0.000000    0.176000    -1.60000    1.000000    
    131 O     c    0.000000    0.500000    0.324000    -1.60000    1.000000    
    132 O     c    0.000000    0.500000    0.824000    -1.60000    1.000000    
    133 O     c    0.500000    0.500000    0.926000    -1.60000    1.000000    
    134 O     c    0.500000    0.500000    0.426000    -1.60000    1.000000    
    135 O     c    0.000000    0.000000    0.074000    -1.60000    1.000000    
    136 O     c    0.000000    0.000000    0.574000    -1.60000    1.000000    
    137 O     c    0.000000    0.500000    0.676000    -1.60000    1.000000    
    138 O     c    0.000000    0.500000    0.176000    -1.60000    1.000000    
    139 O     c    0.500000    0.000000    0.324000    -1.60000    1.000000    
    140 O     c    0.500000    0.000000    0.824000    -1.60000    1.000000    
    141 O     c    0.000000    0.000000    0.926000    -1.60000    1.000000    
    142 O     c    0.000000    0.000000    0.426000    -1.60000    1.000000    
    143 O     c    0.500000    0.500000    0.074000    -1.60000    1.000000    
    144 O     c    0.500000    0.500000    0.574000    -1.60000    1.000000    
    145 Xe    c    0.000000    0.500000    0.500000     0.00000    1.000000    
--------------------------------------------------------------------------------



********************************************************************************
*  General input information                                                   *
********************************************************************************

  Species output for all configurations : 

--------------------------------------------------------------------------------
  Species    Type    Atomic    Atomic    Charge       Radii (Angs)     Library
                     Number     Mass       (e)     Cova   Ionic  VDW   Symbol
--------------------------------------------------------------------------------
    Si       Core       14      28.09   3.200000   1.200  0.000  2.100          
    O        Core        8      16.00  -1.600000   0.730  0.000  1.360          
    Xe       Core       54     131.29   0.000000   0.000  0.000  0.000          
--------------------------------------------------------------------------------


  Lattice summation method               =    Ewald          (3-D)
                                         =    Parry          (2-D)
                                         =    Saunders et al (1-D)
  Accuracy factor for lattice sums       =   12.000


  Time limit = Infinity

********************************************************************************
*  Output for configuration   1                                                *
********************************************************************************


  Components of energy : 

--------------------------------------------------------------------------------
  Interatomic potentials     =           0.00000000 eV    
  Monopole - monopole (real) =       -3726.81666417 eV    
  Monopole - monopole (recip)=       -1123.94049130 eV    
  Monopole - monopole (total)=       -4850.75715547 eV    
--------------------------------------------------------------------------------
  Total lattice energy       =       -4850.75715547 eV    
--------------------------------------------------------------------------------
  Total lattice energy       =         -468023.9149 kJ/(mole unit cells)
--------------------------------------------------------------------------------


  Electrostatic potential at atomic positions :

-------------------------------------------------------------------------------
 Site  Atomic      Potential                Derivatives (V/Angs)
 No.   Label          (V)                 x           y           z
-------------------------------------------------------------------------------
     1 Si    c    -37.912200           0.000000    0.000000    0.000000
     2 Si    c    -37.912200           0.000000    0.000000   -0.000000
     3 Si    c    -37.912200           0.000000    0.000000    0.000000
     4 Si    c    -37.912200           0.000000    0.000000   -0.000000
     5 Si    c    -37.912200           0.000000    0.000000   -0.000000
     6 Si    c    -37.912200           0.000000    0.000000   -0.000000
     7 Si    c    -37.912200           0.000000    0.000000   -0.000000
     8 Si    c    -37.912200           0.000000    0.000000   -0.000000
     9 Si    c    -37.912200           0.000000    0.000000   -0.000000
    10 Si    c    -37.912200           0.000000    0.000000    0.000000
    11 Si    c    -37.912200           0.000000    0.000000   -0.000000
    12 Si    c    -37.912200           0.000000    0.000000    0.000000
    13 Si    c    -37.912200           0.000000    0.000000    0.000000
    14 Si    c    -37.912200           0.000000    0.000000   -0.000000
    15 Si    c    -37.912200           0.000000    0.000000    0.000000
    16 Si    c    -37.912200           0.000000    0.000000   -0.000000
    17 Si    c    -37.912187          -0.000000   -0.000020   -0.000020
    18 Si    c    -37.912187          -0.000000   -0.000020   -0.000020
    19 Si    c    -37.912187          -0.000000   -0.000020   -0.000020
    20 Si    c    -37.912187          -0.000000   -0.000020   -0.000020
    21 Si    c    -37.912187          -0.000000    0.000020    0.000020
    22 Si    c    -37.912187          -0.000000    0.000020    0.000020
    23 Si    c    -37.912187          -0.000000    0.000020    0.000020
    24 Si    c    -37.912187          -0.000000    0.000020    0.000020
    25 Si    c    -37.912187          -0.000000    0.000020   -0.000020
    26 Si    c    -37.912187          -0.000000    0.000020   -0.000020
    27 Si    c    -37.912187          -0.000000    0.000020   -0.000020
    28 Si    c    -37.912187          -0.000000    0.000020   -0.000020
    29 Si    c    -37.912187          -0.000000   -0.000020    0.000020
    30 Si    c    -37.912187          -0.000000   -0.000020    0.000020
    31 Si    c    -37.912187          -0.000000   -0.000020    0.000020
    32 Si    c    -37.912187          -0.000000   -0.000020    0.000020
    33 Si    c    -37.912187          -0.000000   -0.000020    0.000020
    34 Si    c    -37.912187          -0.000000   -0.000020    0.000020
    35 Si    c    -37.912187          -0.000000   -0.000020    0.000020
    36 Si    c    -37.912187          -0.000000   -0.000020    0.000020
    37 Si    c    -37.912187          -0.000000    0.000020   -0.000020
    38 Si    c    -37.912187          -0.000000    0.000020   -0.000020
    39 Si    c    -37.912187          -0.000000    0.000020   -0.000020
    40 Si    c    -37.912187          -0.000000    0.000020   -0.000020
    41 Si    c    -37.912187          -0.000000    0.000020    0.000020
    42 Si    c    -37.912187          -0.000000    0.000020    0.000020
    43 Si    c    -37.912187          -0.000000    0.000020    0.000020
    44 Si    c    -37.912187          -0.000000    0.000020    0.000020
    45 Si    c    -37.912187          -0.000000   -0.000020   -0.000020
    46 Si    c    -37.912187          -0.000000   -0.000020   -0.000020
    47 Si    c    -37.912187          -0.000000   -0.000020   -0.000020
    48 Si    c    -37.912187          -0.000000   -0.000020   -0.000020
    49 O     c     25.248695           3.265662   -2.309196   -2.309196
    50 O     c     25.248695           3.265662   -2.309196   -2.309196
    51 O     c     25.248695           3.265662   -2.309196   -2.309196
    52 O     c     25.248695           3.265662   -2.309196   -2.309196
    53 O     c     25.248695           3.265662   -2.309196   -2.309196
    54 O     c     25.248695           3.265662   -2.309196   -2.309196
    55 O     c     25.248695           3.265662   -2.309196   -2.309196
    56 O     c     25.248695           3.265662   -2.309196   -2.309196
    57 O     c     25.248695          -3.265662    2.309196   -2.309196
    58 O     c     25.248695          -3.265662    2.309196   -2.309196
    59 O     c     25.248695          -3.265662    2.309196   -2.309196
    60 O     c     25.248695          -3.265662    2.309196   -2.309196
    61 O     c     25.248695          -3.265662    2.309196   -2.309196
    62 O     c     25.248695          -3.265662    2.309196   -2.309196
    63 O     c     25.248695          -3.265662    2.309196   -2.309196
    64 O     c     25.248695          -3.265662    2.309196   -2.309196
    65 O     c     25.248695          -3.265662   -2.309196    2.309196
    66 O     c     25.248695          -3.265662   -2.309196    2.309196
    67 O     c     25.248695          -3.265662   -2.309196    2.309196
    68 O     c     25.248695          -3.265662   -2.309196    2.309196
    69 O     c     25.248695          -3.265662   -2.309196    2.309196
    70 O     c     25.248695          -3.265662   -2.309196    2.309196
    71 O     c     25.248695          -3.265662   -2.309196    2.309196
    72 O     c     25.248695          -3.265662   -2.309196    2.309196
    73 O     c     25.248695           3.265662    2.309196    2.309196
    74 O     c     25.248695           3.265662    2.309196    2.309196
    75 O     c     25.248695           3.265662    2.309196    2.309196
    76 O     c     25.248695           3.265662    2.309196    2.309196
    77 O     c     25.248695           3.265662    2.309196    2.309196
    78 O     c     25.248695           3.265662    2.309196    2.309196
    79 O     c     25.248695           3.265662    2.309196    2.309196
    80 O     c     25.248695           3.265662    2.309196    2.309196
    81 O     c     25.248695          -3.265662    2.309196    2.309196
    82 O     c     25.248695          -3.265662    2.309196    2.309196
    83 O     c     25.248695          -3.265662    2.309196    2.309196
    84 O     c     25.248695          -3.265662    2.309196    2.309196
    85 O     c     25.248695          -3.265662    2.309196    2.309196
    86 O     c     25.248695          -3.265662    2.309196    2.309196
    87 O     c     25.248695          -3.265662    2.309196    2.309196
    88 O     c     25.248695          -3.265662    2.309196    2.309196
    89 O     c     25.248695           3.265662   -2.309196    2.309196
    90 O     c     25.248695           3.265662   -2.309196    2.309196
    91 O     c     25.248695           3.265662   -2.309196    2.309196
    92 O     c     25.248695           3.265662   -2.309196    2.309196
    93 O     c     25.248695           3.265662   -2.309196    2.309196
    94 O     c     25.248695           3.265662   -2.309196    2.309196
    95 O     c     25.248695           3.265662   -2.309196    2.309196
    96 O     c     25.248695           3.265662   -2.309196    2.309196
    97 O     c     25.248695           3.265662    2.309196   -2.309196
    98 O     c     25.248695           3.265662    2.309196   -2.309196
    99 O     c     25.248695           3.265662    2.309196   -2.309196
   100 O     c     25.248695           3.265662    2.309196   -2.309196
   101 O     c     25.248695           3.265662    2.309196   -2.309196
   102 O     c     25.248695           3.265662    2.309196   -2.309196
   103 O     c     25.248695           3.265662    2.309196   -2.309196
   104 O     c     25.248695           3.265662    2.309196   -2.309196
   105 O     c     25.248695          -3.265662   -2.309196   -2.309196
   106 O     c     25.248695          -3.265662   -2.309196   -2.309196
   107 O     c     25.248695          -3.265662   -2.309196   -2.309196
   108 O     c     25.248695          -3.265662   -2.309196   -2.309196
   109 O     c     25.248695          -3.265662   -2.309196   -2.309196
   110 O     c     25.248695          -3.265662   -2.309196   -2.309196
   111 O     c     25.248695          -3.265662   -2.309196   -2.309196
   112 O     c     25.248695          -3.265662   -2.309196   -2.309196
   113 O     c     25.248738          -0.000000    4.618377   -0.000000
   114 O     c     25.248738          -0.000000    4.618377   -0.000000
   115 O     c     25.248738          -0.000000    4.618377   -0.000000
   116 O     c     25.248738          -0.000000    4.618377   -0.000000
   117 O     c     25.248738          -0.000000   -4.618377   -0.000000
   118 O     c     25.248738          -0.000000   -4.618377   -0.000000
   119 O     c     25.248738          -0.000000   -4.618377   -0.000000
   120 O     c     25.248738          -0.000000   -4.618377   -0.000000
   121 O     c     25.248738          -0.000000    4.618377   -0.000000
   122 O     c     25.248738          -0.000000    4.618377   -0.000000
   123 O     c     25.248738          -0.000000    4.618377   -0.000000
   124 O     c     25.248738          -0.000000    4.618377   -0.000000
   125 O     c     25.248738          -0.000000   -4.618377   -0.000000
   126 O     c     25.248738          -0.000000   -4.618377   -0.000000
   127 O     c     25.248738          -0.000000   -4.618377   -0.000000
   128 O     c     25.248738          -0.000000   -4.618377   -0.000000
   129 O     c     25.248738          -0.000000    0.000000    4.618377
   130 O     c     25.248738          -0.000000    0.000000    4.618377
   131 O     c     25.248738          -0.000000   -0.000000   -4.618377
   132 O     c     25.248738          -0.000000   -0.000000   -4.618377
   133 O     c     25.248738          -0.000000   -0.000000    4.618377
   134 O     c     25.248738          -0.000000   -0.000000    4.618377
   135 O     c     25.248738          -0.000000    0.000000   -4.618377
   136 O     c     25.248738          -0.000000    0.000000   -4.618377
   137 O     c     25.248738          -0.000000   -0.000000    4.618377
   138 O     c     25.248738          -0.000000   -0.000000    4.618377
   139 O     c     25.248738          -0.000000    0.000000   -4.618377
   140 O     c     25.248738          -0.000000    0.000000   -4.618377
   141 O     c     25.248738          -0.000000    0.000000    4.618377
   142 O     c     25.248738          -0.000000    0.000000    4.618377
   143 O     c     25.248738          -0.000000   -0.000000   -4.618377
   144 O     c     25.248738          -0.000000   -0.000000   -4.618377
   145 Xe    c     -1.440909          -0.000000    0.000000    0.000000
-------------------------------------------------------------------------------


  Electric Field Gradients at atomic positions :

-------------------------------------------------------------------------------
   Site no.                      EFGs (V/Angs**2)
                xx        xy        yy        xz        yz        zz
-------------------------------------------------------------------------------
        1      2.2560    0.0000   -1.1280    0.0000   -0.0000   -1.1280
        2      2.2560    0.0000   -1.1280    0.0000   -0.0000   -1.1280
        3      2.2560    0.0000   -1.1280    0.0000   -0.0000   -1.1280
        4      2.2560    0.0000   -1.1280    0.0000   -0.0000   -1.1280
        5      2.2560    0.0000   -1.1280    0.0000   -0.0000   -1.1280
        6      2.2560    0.0000   -1.1280    0.0000   -0.0000   -1.1280
        7      2.2560    0.0000   -1.1280    0.0000   -0.0000   -1.1280
        8      2.2560    0.0000   -1.1280    0.0000   -0.0000   -1.1280
        9      2.2560   -0.0000   -1.1280   -0.0000    0.0000   -1.1280
       10      2.2560   -0.0000   -1.1280   -0.0000    0.0000   -1.1280
       11      2.2560   -0.0000   -1.1280   -0.0000    0.0000   -1.1280
       12      2.2560   -0.0000   -1.1280   -0.0000    0.0000   -1.1280
       13      2.2560   -0.0000   -1.1280   -0.0000    0.0000   -1.1280
       14      2.2560   -0.0000   -1.1280   -0.0000    0.0000   -1.1280
       15      2.2560   -0.0000   -1.1280   -0.0000    0.0000   -1.1280
       16      2.2560   -0.0000   -1.1280   -0.0000    0.0000   -1.1280
       17     -1.1280    0.0000    0.5640    0.0000    1.6920    0.5640
       18     -1.1280    0.0000    0.5640    0.0000    1.6920    0.5640
       19     -1.1280    0.0000    0.5640    0.0000    1.6920    0.5640
       20     -1.1280    0.0000    0.5640    0.0000    1.6920    0.5640
       21     -1.1280   -0.0000    0.5640   -0.0000    1.6920    0.5640
       22     -1.1280   -0.0000    0.5640   -0.0000    1.6920    0.5640
       23     -1.1280   -0.0000    0.5640   -0.0000    1.6920    0.5640
       24     -1.1280   -0.0000    0.5640   -0.0000    1.6920    0.5640
       25     -1.1280   -0.0000    0.5640    0.0000   -1.6920    0.5640
       26     -1.1280   -0.0000    0.5640    0.0000   -1.6920    0.5640
       27     -1.1280   -0.0000    0.5640    0.0000   -1.6920    0.5640
       28     -1.1280   -0.0000    0.5640    0.0000   -1.6920    0.5640
       29     -1.1280    0.0000    0.5640   -0.0000   -1.6920    0.5640
       30     -1.1280    0.0000    0.5640   -0.0000   -1.6920    0.5640
       31     -1.1280    0.0000    0.5640   -0.0000   -1.6920    0.5640
       32     -1.1280    0.0000    0.5640   -0.0000   -1.6920    0.5640
       33     -1.1280    0.0000    0.5640   -0.0000   -1.6920    0.5640
       34     -1.1280    0.0000    0.5640   -0.0000   -1.6920    0.5640
       35     -1.1280    0.0000    0.5640   -0.0000   -1.6920    0.5640
       36     -1.1280    0.0000    0.5640   -0.0000   -1.6920    0.5640
       37     -1.1280   -0.0000    0.5640    0.0000   -1.6920    0.5640
       38     -1.1280   -0.0000    0.5640    0.0000   -1.6920    0.5640
       39     -1.1280   -0.0000    0.5640    0.0000   -1.6920    0.5640
       40     -1.1280   -0.0000    0.5640    0.0000   -1.6920    0.5640
       41     -1.1280   -0.0000    0.5640   -0.0000    1.6920    0.5640
       42     -1.1280   -0.0000    0.5640   -0.0000    1.6920    0.5640
       43     -1.1280   -0.0000    0.5640   -0.0000    1.6920    0.5640
       44     -1.1280   -0.0000    0.5640   -0.0000    1.6920    0.5640
       45     -1.1280    0.0000    0.5640    0.0000    1.6920    0.5640
       46     -1.1280    0.0000    0.5640    0.0000    1.6920    0.5640
       47     -1.1280    0.0000    0.5640    0.0000    1.6920    0.5640
       48     -1.1280    0.0000    0.5640    0.0000    1.6920    0.5640
       49      9.5624   18.1766   -4.7812   18.1766   14.3435   -4.7812
       50      9.5624   18.1766   -4.7812   18.1766   14.3435   -4.7812
       51      9.5624   18.1766   -4.7812   18.1766   14.3435   -4.7812
       52      9.5624   18.1766   -4.7812   18.1766   14.3435   -4.7812
       53      9.5624   18.1766   -4.7812   18.1766   14.3435   -4.7812
       54      9.5624   18.1766   -4.7812   18.1766   14.3435   -4.7812
       55      9.5624   18.1766   -4.7812   18.1766   14.3435   -4.7812
       56      9.5624   18.1766   -4.7812   18.1766   14.3435   -4.7812
       57      9.5624   18.1766   -4.7812  -18.1766  -14.3435   -4.7812
       58      9.5624   18.1766   -4.7812  -18.1766  -14.3435   -4.7812
       59      9.5624   18.1766   -4.7812  -18.1766  -14.3435   -4.7812
       60      9.5624   18.1766   -4.7812  -18.1766  -14.3435   -4.7812
       61      9.5624   18.1766   -4.7812  -18.1766  -14.3435   -4.7812
       62      9.5624   18.1766   -4.7812  -18.1766  -14.3435   -4.7812
       63      9.5624   18.1766   -4.7812  -18.1766  -14.3435   -4.7812
       64      9.5624   18.1766   -4.7812  -18.1766  -14.3435   -4.7812
       65      9.5624  -18.1766   -4.7812   18.1766  -14.3435   -4.7812
       66      9.5624  -18.1766   -4.7812   18.1766  -14.3435   -4.7812
       67      9.5624  -18.1766   -4.7812   18.1766  -14.3435   -4.7812
       68      9.5624  -18.1766   -4.7812   18.1766  -14.3435   -4.7812
       69      9.5624  -18.1766   -4.7812   18.1766  -14.3435   -4.7812
       70      9.5624  -18.1766   -4.7812   18.1766  -14.3435   -4.7812
       71      9.5624  -18.1766   -4.7812   18.1766  -14.3435   -4.7812
       72      9.5624  -18.1766   -4.7812   18.1766  -14.3435   -4.7812
       73      9.5624  -18.1766   -4.7812  -18.1766   14.3435   -4.7812
       74      9.5624  -18.1766   -4.7812  -18.1766   14.3435   -4.7812
       75      9.5624  -18.1766   -4.7812  -18.1766   14.3435   -4.7812
       76      9.5624  -18.1766   -4.7812  -18.1766   14.3435   -4.7812
       77      9.5624  -18.1766   -4.7812  -18.1766   14.3435   -4.7812
       78      9.5624  -18.1766   -4.7812  -18.1766   14.3435   -4.7812
       79      9.5624  -18.1766   -4.7812  -18.1766   14.3435   -4.7812
       80      9.5624  -18.1766   -4.7812  -18.1766   14.3435   -4.7812
       81      9.5624   18.1766   -4.7812   18.1766   14.3435   -4.7812
       82      9.5624   18.1766   -4.7812   18.1766   14.3435   -4.7812
       83      9.5624   18.1766   -4.7812   18.1766   14.3435   -4.7812
       84      9.5624   18.1766   -4.7812   18.1766   14.3435   -4.7812
       85      9.5624   18.1766   -4.7812   18.1766   14.3435   -4.7812
       86      9.5624   18.1766   -4.7812   18.1766   14.3435   -4.7812
       87      9.5624   18.1766   -4.7812   18.1766   14.3435   -4.7812
       88      9.5624   18.1766   -4.7812   18.1766   14.3435   -4.7812
       89      9.5624   18.1766   -4.7812  -18.1766  -14.3435   -4.7812
       90      9.5624   18.1766   -4.7812  -18.1766  -14.3435   -4.7812
       91      9.5624   18.1766   -4.7812  -18.1766  -14.3435   -4.7812
       92      9.5624   18.1766   -4.7812  -18.1766  -14.3435   -4.7812
       93      9.5624   18.1766   -4.7812  -18.1766  -14.3435   -4.7812
       94      9.5624   18.1766   -4.7812  -18.1766  -14.3435   -4.7812
       95      9.5624   18.1766   -4.7812  -18.1766  -14.3435   -4.7812
       96      9.5624   18.1766   -4.7812  -18.1766  -14.3435   -4.7812
       97      9.5624  -18.1766   -4.7812   18.1766  -14.3435   -4.7812
       98      9.5624  -18.1766   -4.7812   18.1766  -14.3435   -4.7812
       99      9.5624  -18.1766   -4.7812   18.1766  -14.3435   -4.7812
      100      9.5624  -18.1766   -4.7812   18.1766  -14.3435   -4.7812
      101      9.5624  -18.1766   -4.7812   18.1766  -14.3435   -4.7812
      102      9.5624  -18.1766   -4.7812   18.1766  -14.3435   -4.7812
      103      9.5624  -18.1766   -4.7812   18.1766  -14.3435   -4.7812
      104      9.5624  -18.1766   -4.7812   18.1766  -14.3435   -4.7812
      105      9.5624  -18.1766   -4.7812  -18.1766   14.3435   -4.7812
      106      9.5624  -18.1766   -4.7812  -18.1766   14.3435   -4.7812
      107      9.5624  -18.1766   -4.7812  -18.1766   14.3435   -4.7812
      108      9.5624  -18.1766   -4.7812  -18.1766   14.3435   -4.7812
      109      9.5624  -18.1766   -4.7812  -18.1766   14.3435   -4.7812
      110      9.5624  -18.1766   -4.7812  -18.1766   14.3435   -4.7812
      111      9.5624  -18.1766   -4.7812  -18.1766   14.3435   -4.7812
      112      9.5624  -18.1766   -4.7812  -18.1766   14.3435   -4.7812
      113    -19.1247   -0.0000  -16.1433    0.0000   -0.0000   35.2680
      114    -19.1247   -0.0000  -16.1433    0.0000    0.0000   35.2680
      115    -19.1247   -0.0000  -16.1433    0.0000   -0.0000   35.2680
      116    -19.1247   -0.0000  -16.1433    0.0000   -0.0000   35.2680
      117    -19.1247    0.0000  -16.1433   -0.0000    0.0000   35.2680
      118    -19.1247    0.0000  -16.1433   -0.0000   -0.0000   35.2680
      119    -19.1247    0.0000  -16.1433   -0.0000    0.0000   35.2680
      120    -19.1247    0.0000  -16.1433   -0.0000    0.0000   35.2680
      121    -19.1247   -0.0000  -16.1433    0.0000   -0.0000   35.2680
      122    -19.1247   -0.0000  -16.1433    0.0000   -0.0000   35.2680
      123    -19.1247   -0.0000  -16.1433    0.0000   -0.0000   35.2680
      124    -19.1247   -0.0000  -16.1433    0.0000   -0.0000   35.2680
      125    -19.1247    0.0000  -16.1433    0.0000    0.0000   35.2680
      126    -19.1247    0.0000  -16.1433    0.0000   -0.0000   35.2680
      127    -19.1247    0.0000  -16.1433   -0.0000    0.0000   35.2680
      128    -19.1247    0.0000  -16.1433   -0.0000    0.0000   35.2680
      129    -19.1247    0.0000   35.2680   -0.0000    0.0000  -16.1433
      130    -19.1247   -0.0000   35.2680   -0.0000    0.0000  -16.1433
      131    -19.1247    0.0000   35.2680    0.0000    0.0000  -16.1433
      132    -19.1247    0.0000   35.2680    0.0000    0.0000  -16.1433
      133    -19.1247   -0.0000   35.2680   -0.0000   -0.0000  -16.1433
      134    -19.1247   -0.0000   35.2680   -0.0000   -0.0000  -16.1433
      135    -19.1247   -0.0000   35.2680    0.0000   -0.0000  -16.1433
      136    -19.1247    0.0000   35.2680    0.0000   -0.0000  -16.1433
      137    -19.1247    0.0000   35.2680   -0.0000   -0.0000  -16.1433
      138    -19.1247   -0.0000   35.2680   -0.0000   -0.0000  -16.1433
      139    -19.1247    0.0000   35.2680    0.0000   -0.0000  -16.1433
      140    -19.1247    0.0000   35.2680    0.0000   -0.0000  -16.1433
      141    -19.1247    0.0000   35.2680   -0.0000    0.0000  -16.1433
      142    -19.1247   -0.0000   35.2680   -0.0000    0.0000  -16.1433
      143    -19.1247    0.0000   35.2680    0.0000    0.0000  -16.1433
      144    -19.1247   -0.0000   35.2680    0.0000    0.0000  -16.1433
      145     -0.0000   -0.0000    0.0000   -0.0000    0.0000    0.0000
-------------------------------------------------------------------------------


  EFG Tensor properties :

-------------------------------------------------------------------------------
   Site no.    Diagonalised EFGs (V/Angs**2)          eVzz/h        Asymmetry
                 xx        yy        zz             (MHz/barn)      Parameter
-------------------------------------------------------------------------------
        1      -1.1280   -1.1280    2.2560             5.4549        0.0000
        2      -1.1280   -1.1280    2.2560             5.4549        0.0000
        3      -1.1280   -1.1280    2.2560             5.4549        0.0000
        4      -1.1280   -1.1280    2.2560             5.4549        0.0000
        5      -1.1280   -1.1280    2.2560             5.4549        0.0000
        6      -1.1280   -1.1280    2.2560             5.4549        0.0000
        7      -1.1280   -1.1280    2.2560             5.4549        0.0000
        8      -1.1280   -1.1280    2.2560             5.4549        0.0000
        9      -1.1280   -1.1280    2.2560             5.4549        0.0000
       10      -1.1280   -1.1280    2.2560             5.4549        0.0000
       11      -1.1280   -1.1280    2.2560             5.4549        0.0000
       12      -1.1280   -1.1280    2.2560             5.4549        0.0000
       13      -1.1280   -1.1280    2.2560             5.4549        0.0000
       14      -1.1280   -1.1280    2.2560             5.4549        0.0000
       15      -1.1280   -1.1280    2.2560             5.4549        0.0000
       16      -1.1280   -1.1280    2.2560             5.4549        0.0000
       17      -1.1280   -1.1280    2.2560             5.4550        0.0000
       18      -1.1280   -1.1280    2.2560             5.4550        0.0000
       19      -1.1280   -1.1280    2.2560             5.4550        0.0000
       20      -1.1280   -1.1280    2.2560             5.4550        0.0000
       21      -1.1280   -1.1280    2.2560             5.4550        0.0000
       22      -1.1280   -1.1280    2.2560             5.4550        0.0000
       23      -1.1280   -1.1280    2.2560             5.4550        0.0000
       24      -1.1280   -1.1280    2.2560             5.4550        0.0000
       25      -1.1280   -1.1280    2.2560             5.4550        0.0000
       26      -1.1280   -1.1280    2.2560             5.4550        0.0000
       27      -1.1280   -1.1280    2.2560             5.4550        0.0000
       28      -1.1280   -1.1280    2.2560             5.4550        0.0000
       29      -1.1280   -1.1280    2.2560             5.4550        0.0000
       30      -1.1280   -1.1280    2.2560             5.4550        0.0000
       31      -1.1280   -1.1280    2.2560             5.4550        0.0000
       32      -1.1280   -1.1280    2.2560             5.4550        0.0000
       33      -1.1280   -1.1280    2.2560             5.4550        0.0000
       34      -1.1280   -1.1280    2.2560             5.4550        0.0000
       35      -1.1280   -1.1280    2.2560             5.4550        0.0000
       36      -1.1280   -1.1280    2.2560             5.4550        0.0000
       37      -1.1280   -1.1280    2.2560             5.4550        0.0000
       38      -1.1280   -1.1280    2.2560             5.4550        0.0000
       39      -1.1280   -1.1280    2.2560             5.4550        0.0000
       40      -1.1280   -1.1280    2.2560             5.4550        0.0000
       41      -1.1280   -1.1280    2.2560             5.4550        0.0000
       42      -1.1280   -1.1280    2.2560             5.4550        0.0000
       43      -1.1280   -1.1280    2.2560             5.4550        0.0000
       44      -1.1280   -1.1280    2.2560             5.4550        0.0000
       45      -1.1280   -1.1280    2.2560             5.4550        0.0000
       46      -1.1280   -1.1280    2.2560             5.4550        0.0000
       47      -1.1280   -1.1280    2.2560             5.4550        0.0000
       48      -1.1280   -1.1280    2.2560             5.4550        0.0000
       49     -16.1432  -19.1247   35.2679            85.2766        0.0845
       50     -16.1432  -19.1247   35.2679            85.2766        0.0845
       51     -16.1432  -19.1247   35.2679            85.2766        0.0845
       52     -16.1432  -19.1247   35.2679            85.2766        0.0845
       53     -16.1432  -19.1247   35.2679            85.2766        0.0845
       54     -16.1432  -19.1247   35.2679            85.2766        0.0845
       55     -16.1432  -19.1247   35.2679            85.2766        0.0845
       56     -16.1432  -19.1247   35.2679            85.2766        0.0845
       57     -16.1432  -19.1247   35.2679            85.2766        0.0845
       58     -16.1432  -19.1247   35.2679            85.2766        0.0845
       59     -16.1432  -19.1247   35.2679            85.2766        0.0845
       60     -16.1432  -19.1247   35.2679            85.2766        0.0845
       61     -16.1432  -19.1247   35.2679            85.2766        0.0845
       62     -16.1432  -19.1247   35.2679            85.2766        0.0845
       63     -16.1432  -19.1247   35.2679            85.2766        0.0845
       64     -16.1432  -19.1247   35.2679            85.2766        0.0845
       65     -16.1432  -19.1247   35.2679            85.2766        0.0845
       66     -16.1432  -19.1247   35.2679            85.2766        0.0845
       67     -16.1432  -19.1247   35.2679            85.2766        0.0845
       68     -16.1432  -19.1247   35.2679            85.2766        0.0845
       69     -16.1432  -19.1247   35.2679            85.2766        0.0845
       70     -16.1432  -19.1247   35.2679            85.2766        0.0845
       71     -16.1432  -19.1247   35.2679            85.2766        0.0845
       72     -16.1432  -19.1247   35.2679            85.2766        0.0845
       73     -16.1432  -19.1247   35.2679            85.2766        0.0845
       74     -16.1432  -19.1247   35.2679            85.2766        0.0845
       75     -16.1432  -19.1247   35.2679            85.2766        0.0845
       76     -16.1432  -19.1247   35.2679            85.2766        0.0845
       77     -16.1432  -19.1247   35.2679            85.2766        0.0845
       78     -16.1432  -19.1247   35.2679            85.2766        0.0845
       79     -16.1432  -19.1247   35.2679            85.2766        0.0845
       80     -16.1432  -19.1247   35.2679            85.2766        0.0845
       81     -16.1432  -19.1247   35.2679            85.2766        0.0845
       82     -16.1432  -19.1247   35.2679            85.2766        0.0845
       83     -16.1432  -19.1247   35.2679            85.2766        0.0845
       84     -16.1432  -19.1247   35.2679            85.2766        0.0845
       85     -16.1432  -19.1247   35.2679            85.2766        0.0845
       86     -16.1432  -19.1247   35.2679            85.2766        0.0845
       87     -16.1432  -19.1247   35.2679            85.2766        0.0845
       88     -16.1432  -19.1247   35.2679            85.2766        0.0845
       89     -16.1432  -19.1247   35.2679            85.2766        0.0845
       90     -16.1432  -19.1247   35.2679            85.2766        0.0845
       91     -16.1432  -19.1247   35.2679            85.2766        0.0845
       92     -16.1432  -19.1247   35.2679            85.2766        0.0845
       93     -16.1432  -19.1247   35.2679            85.2766        0.0845
       94     -16.1432  -19.1247   35.2679            85.2766        0.0845
       95     -16.1432  -19.1247   35.2679            85.2766        0.0845
       96     -16.1432  -19.1247   35.2679            85.2766        0.0845
       97     -16.1432  -19.1247   35.2679            85.2766        0.0845
       98     -16.1432  -19.1247   35.2679            85.2766        0.0845
       99     -16.1432  -19.1247   35.2679            85.2766        0.0845
      100     -16.1432  -19.1247   35.2679            85.2766        0.0845
      101     -16.1432  -19.1247   35.2679            85.2766        0.0845
      102     -16.1432  -19.1247   35.2679            85.2766        0.0845
      103     -16.1432  -19.1247   35.2679            85.2766        0.0845
      104     -16.1432  -19.1247   35.2679            85.2766        0.0845
      105     -16.1432  -19.1247   35.2679            85.2766        0.0845
      106     -16.1432  -19.1247   35.2679            85.2766        0.0845
      107     -16.1432  -19.1247   35.2679            85.2766        0.0845
      108     -16.1432  -19.1247   35.2679            85.2766        0.0845
      109     -16.1432  -19.1247   35.2679            85.2766        0.0845
      110     -16.1432  -19.1247   35.2679            85.2766        0.0845
      111     -16.1432  -19.1247   35.2679            85.2766        0.0845
      112     -16.1432  -19.1247   35.2679            85.2766        0.0845
      113     -16.1433  -19.1247   35.2680            85.2770        0.0845
      114     -16.1433  -19.1247   35.2680            85.2770        0.0845
      115     -16.1433  -19.1247   35.2680            85.2770        0.0845
      116     -16.1433  -19.1247   35.2680            85.2770        0.0845
      117     -16.1433  -19.1247   35.2680            85.2770        0.0845
      118     -16.1433  -19.1247   35.2680            85.2770        0.0845
      119     -16.1433  -19.1247   35.2680            85.2770        0.0845
      120     -16.1433  -19.1247   35.2680            85.2770        0.0845
      121     -16.1433  -19.1247   35.2680            85.2770        0.0845
      122     -16.1433  -19.1247   35.2680            85.2770        0.0845
      123     -16.1433  -19.1247   35.2680            85.2770        0.0845
      124     -16.1433  -19.1247   35.2680            85.2770        0.0845
      125     -16.1433  -19.1247   35.2680            85.2770        0.0845
      126     -16.1433  -19.1247   35.2680            85.2770        0.0845
      127     -16.1433  -19.1247   35.2680            85.2770        0.0845
      128     -16.1433  -19.1247   35.2680            85.2770        0.0845
      129     -16.1433  -19.1247   35.2680            85.2770        0.0845
      130     -16.1433  -19.1247   35.2680            85.2770        0.0845
      131     -16.1433  -19.1247   35.2680            85.2770        0.0845
      132     -16.1433  -19.1247   35.2680            85.2770        0.0845
      133     -16.1433  -19.1247   35.2680            85.2770        0.0845
      134     -16.1433  -19.1247   35.2680            85.2770        0.0845
      135     -16.1433  -19.1247   35.2680            85.2770        0.0845
      136     -16.1433  -19.1247   35.2680            85.2770        0.0845
      137     -16.1433  -19.1247   35.2680            85.2770        0.0845
      138     -16.1433  -19.1247   35.2680            85.2770        0.0845
      139     -16.1433  -19.1247   35.2680            85.2770        0.0845
      140     -16.1433  -19.1247   35.2680            85.2770        0.0845
      141     -16.1433  -19.1247   35.2680            85.2770        0.0845
      142     -16.1433  -19.1247   35.2680            85.2770        0.0845
      143     -16.1433  -19.1247   35.2680            85.2770        0.0845
      144     -16.1433  -19.1247   35.2680            85.2770        0.0845
      145       0.0000    0.0000   -0.0000             0.0000        0.0000
-------------------------------------------------------------------------------

  Total time to end of lattice properties =       0.2599 s



  Electrostatic potential on a grid :

  Number of steps =     19  X     19  X     19
  Grid size       =     20  X     20  X     20

-------------------------------------------------------------------------------
    x         y         z       Potential         Derivatives (V/Angs)
         (Fractional)              (V)             x          y          z
-------------------------------------------------------------------------------
  0.0000    0.0000    0.0000       0.739192   -0.00000   -0.00000   -0.00000
  0.0000    0.0000    0.0526     -17.261560    0.00000   -0.00000  -72.30830
  0.0000    0.0000    0.1053     -10.398580    0.00000   -0.00000   26.54873
  0.0000    0.0000    0.1579      -1.730838   -0.00000   -0.00000    0.69370
  0.0000    0.0000    0.2105      -1.446542   -0.00000   -0.00000    0.02359
  0.0000    0.0000    0.2632      -1.440972   -0.00000   -0.00000   -0.00076
  0.0000    0.0000    0.3158      -1.493951   -0.00000   -0.00000   -0.14741
  0.0000    0.0000    0.3684      -2.908643    0.00000   -0.00000   -3.68002
  0.0000    0.0000    0.4211    -158.220054    0.00000   -0.00000 **********
  0.0000    0.0000    0.4737      -0.028066    0.00000   -0.00000    4.91053
  0.0000    0.0000    0.5263      -0.028066    0.00000   -0.00000   -4.91053
  0.0000    0.0000    0.5789    -158.220054    0.00000   -0.00000 1443.34575
  0.0000    0.0000    0.6316      -2.908643    0.00000   -0.00000    3.68002
  0.0000    0.0000    0.6842      -1.493951   -0.00000   -0.00000    0.14741
  0.0000    0.0000    0.7368      -1.440972   -0.00000   -0.00000    0.00076
  0.0000    0.0000    0.7895      -1.446542   -0.00000   -0.00000   -0.02359
  0.0000    0.0000    0.8421      -1.730838   -0.00000   -0.00000   -0.69370
  0.0000    0.0000    0.8947     -10.398580    0.00000   -0.00000  -26.54873
  0.0000    0.0000    0.9474     -17.261560    0.00000   -0.00000   72.30830
  0.0000    0.0000    1.0000       0.739192   -0.00000   -0.00000    0.00000
  0.0000    0.0526    0.0000      -0.028066    0.00000   -4.91053   -0.00000
  0.0000    0.0526    0.0526       8.128191   -0.00000   59.34501   -4.62848
  0.0000    0.0526    0.1053      -1.660412    0.00000   19.01329    0.81204
  0.0000    0.0526    0.1579      -1.370956   -0.00000    0.95095    0.05239
  0.0000    0.0526    0.2105      -1.405907   -0.00000    0.11745   -0.06142
  0.0000    0.0526    0.2632      -1.437453   -0.00000    0.00737    0.02651
  0.0000    0.0526    0.3158      -1.368106   -0.00000    0.35695    0.03834
  0.0000    0.0526    0.3684      -1.429612   -0.00000    3.62889   -0.11932
  0.0000    0.0526    0.4211      -0.953596    0.00000   77.23160    8.54550
  0.0000    0.0526    0.4737       4.067727   -0.00000   10.18614  -10.18614
  0.0000    0.0526    0.5263       4.067727   -0.00000   10.18614   10.18614
  0.0000    0.0526    0.5789      -0.953596    0.00000   77.23160   -8.54550
  0.0000    0.0526    0.6316      -1.429612   -0.00000    3.62889    0.11932
  0.0000    0.0526    0.6842      -1.368106   -0.00000    0.35695   -0.03834
  0.0000    0.0526    0.7368      -1.437453   -0.00000    0.00737   -0.02651
  0.0000    0.0526    0.7895      -1.405907   -0.00000    0.11745    0.06142
  0.0000    0.0526    0.8421      -1.370956   -0.00000    0.95095   -0.05239
  0.0000    0.0526    0.8947      -1.660412    0.00000   19.01329   -0.81204
  0.0000    0.0526    0.9474       8.128191   -0.00000   59.34501    4.62848
  0.0000    0.0526    1.0000      -0.028066    0.00000   -4.91053   -0.00000
  0.0000    0.1053    0.0000     -17.261560    0.00000  -72.30830   -0.00000
  0.0000    0.1053    0.0526      91.855412   -0.00000  256.74069  256.74069
  0.0000    0.1053    0.1053       8.603877   -0.00000    8.10882  -25.30659
  0.0000    0.1053    0.1579      -0.672072   -0.00000    1.00724   -0.82310
  0.0000    0.1053    0.2105      -1.297645   -0.00000    0.19782   -0.30200
  0.0000    0.1053    0.2632      -1.441002   -0.00000   -0.03145    0.11398
  0.0000    0.1053    0.3158      -1.050132   -0.00000    0.56706    0.43268
  0.0000    0.1053    0.3684       0.652271   -0.00000    1.84744    4.20295
  0.0000    0.1053    0.4211      56.663227   -0.00000  101.10465  162.08653
  0.0000    0.1053    0.4737       8.128191   -0.00000   -4.62848  -59.34501
  0.0000    0.1053    0.5263       8.128191   -0.00000   -4.62848   59.34501
  0.0000    0.1053    0.5789      56.663227   -0.00000  101.10465 -162.08653
  0.0000    0.1053    0.6316       0.652271   -0.00000    1.84744   -4.20295
  0.0000    0.1053    0.6842      -1.050132   -0.00000    0.56706   -0.43268
  0.0000    0.1053    0.7368      -1.441002   -0.00000   -0.03145   -0.11398
  0.0000    0.1053    0.7895      -1.297645   -0.00000    0.19782    0.30200
  0.0000    0.1053    0.8421      -0.672072   -0.00000    1.00724    0.82310
  0.0000    0.1053    0.8947       8.603877   -0.00000    8.10882   25.30659
  0.0000    0.1053    0.9474      91.855412   -0.00000  256.74069 -256.74069
  0.0000    0.1053    1.0000     -17.261560    0.00000  -72.30830   -0.00000
  0.0000    0.1579    0.0000    -158.220054    0.00000 1443.34575   -0.00000
  0.0000    0.1579    0.0526      56.663227   -0.00000 -162.08653  101.10465
  0.0000    0.1579    0.1053       7.061086   -0.00000   -9.65825  -20.38979
  0.0000    0.1579    0.1579      -0.072822   -0.00000    0.80149   -0.87906
  0.0000    0.1579    0.2105      -1.143092   -0.00000    0.28101   -0.71666
  0.0000    0.1579    0.2632      -1.513909   -0.00000   -0.23227    0.32141
  0.0000    0.1579    0.3158      -0.624503   -0.00000    0.71375    0.80255
  0.0000    0.1579    0.3684       0.918206   -0.00000   -0.52747    2.91857
  0.0000    0.1579    0.4211      40.559895   -0.00000  -90.33327   90.33327
  0.0000    0.1579    0.4737      -0.953596    0.00000   -8.54550  -77.23160
  0.0000    0.1579    0.5263      -0.953596    0.00000   -8.54550   77.23160
  0.0000    0.1579    0.5789      40.559895   -0.00000  -90.33327  -90.33327
  0.0000    0.1579    0.6316       0.918206   -0.00000   -0.52747   -2.91857
  0.0000    0.1579    0.6842      -0.624503   -0.00000    0.71375   -0.80255
  0.0000    0.1579    0.7368      -1.513909   -0.00000   -0.23227   -0.32141
  0.0000    0.1579    0.7895      -1.143092   -0.00000    0.28101    0.71666
  0.0000    0.1579    0.8421      -0.072822   -0.00000    0.80149    0.87906
  0.0000    0.1579    0.8947       7.061086   -0.00000   -9.65825   20.38979
  0.0000    0.1579    0.9474      56.663227   -0.00000 -162.08653 -101.10465
  0.0000    0.1579    1.0000    -158.220054    0.00000 1443.34575   -0.00000
  0.0000    0.2105    0.0000     -10.398580    0.00000   26.54873   -0.00000
  0.0000    0.2105    0.0526       8.603877   -0.00000  -25.30659    8.10882
  0.0000    0.2105    0.1053       1.780909   -0.00000   -4.11807   -4.11807
  0.0000    0.2105    0.1579       0.427573   -0.00000    0.74678   -0.45360
  0.0000    0.2105    0.2105      -0.790844   -0.00000    1.03055   -1.75119
  0.0000    0.2105    0.2632      -1.892949   -0.00000   -1.12831    1.11114
  0.0000    0.2105    0.3158       0.067945   -0.00000    1.73823    0.76768
  0.0000    0.2105    0.3684       0.697092   -0.00000    0.02358    0.40222
  0.0000    0.2105    0.4211       7.061086   -0.00000  -20.38979    9.65825
  0.0000    0.2105    0.4737      -1.660412    0.00000    0.81204  -19.01329
  0.0000    0.2105    0.5263      -1.660412    0.00000    0.81204   19.01329
  0.0000    0.2105    0.5789       7.061086   -0.00000  -20.38979   -9.65825
  0.0000    0.2105    0.6316       0.697092   -0.00000    0.02358   -0.40222
  0.0000    0.2105    0.6842       0.067945   -0.00000    1.73823   -0.76768
  0.0000    0.2105    0.7368      -1.892949   -0.00000   -1.12831   -1.11114
  0.0000    0.2105    0.7895      -0.790844   -0.00000    1.03055    1.75119
  0.0000    0.2105    0.8421       0.427573   -0.00000    0.74678    0.45360
  0.0000    0.2105    0.8947       1.780909   -0.00000   -4.11807    4.11807
  0.0000    0.2105    0.9474       8.603877   -0.00000  -25.30659   -8.10882
  0.0000    0.2105    1.0000     -10.398580    0.00000   26.54873   -0.00000
  0.0000    0.2632    0.0000      -2.908643    0.00000    3.68002   -0.00000
  0.0000    0.2632    0.0526       0.652271   -0.00000   -4.20295    1.84744
  0.0000    0.2632    0.1053       0.697092   -0.00000   -0.40222    0.02358
  0.0000    0.2632    0.1579       1.560355   -0.00000    3.97747    2.65219
  0.0000    0.2632    0.2105       1.152737   -0.00000    6.17666   -7.06244
  0.0000    0.2632    0.2632      -3.921035    0.00000   -6.56770    5.70246
  0.0000    0.2632    0.3158       3.359897   -0.00000   10.94627   -0.88020
  0.0000    0.2632    0.3684       0.757522   -0.00000    0.17887   -0.17887
  0.0000    0.2632    0.4211       0.918206   -0.00000   -2.91857    0.52747
  0.0000    0.2632    0.4737      -1.429612   -0.00000    0.11932   -3.62889
  0.0000    0.2632    0.5263      -1.429612   -0.00000    0.11932    3.62889
  0.0000    0.2632    0.5789       0.918206   -0.00000   -2.91857   -0.52747
  0.0000    0.2632    0.6316       0.757522   -0.00000    0.17887    0.17887
  0.0000    0.2632    0.6842       3.359897   -0.00000   10.94627    0.88020
  0.0000    0.2632    0.7368      -3.921035    0.00000   -6.56770   -5.70246
  0.0000    0.2632    0.7895       1.152737   -0.00000    6.17666    7.06244
  0.0000    0.2632    0.8421       1.560355   -0.00000    3.97747   -2.65219
  0.0000    0.2632    0.8947       0.697092   -0.00000   -0.40222   -0.02358
  0.0000    0.2632    0.9474       0.652271   -0.00000   -4.20295   -1.84744
  0.0000    0.2632    1.0000      -2.908643    0.00000    3.68002   -0.00000
  0.0000    0.3158    0.0000      -1.730838   -0.00000    0.69370   -0.00000
  0.0000    0.3158    0.0526      -0.672072   -0.00000   -0.82310    1.00724
  0.0000    0.3158    0.1053       0.427573   -0.00000   -0.45360    0.74678
  0.0000    0.3158    0.1579       9.184465   -0.00000   21.45383   21.45383
  0.0000    0.3158    0.2105      11.411073   -0.00000   29.27502  -37.32903
  0.0000    0.3158    0.2632     -17.503814    0.00000  -45.77936   48.28885
  0.0000    0.3158    0.3158      24.918669   -0.00000   72.25461   -9.24328
  0.0000    0.3158    0.3684       1.560355   -0.00000    2.65219   -3.97747
  0.0000    0.3158    0.4211      -0.072822   -0.00000   -0.87906   -0.80149
  0.0000    0.3158    0.4737      -1.370956   -0.00000    0.05239   -0.95095
  0.0000    0.3158    0.5263      -1.370956   -0.00000    0.05239    0.95095
  0.0000    0.3158    0.5789      -0.072822   -0.00000   -0.87906    0.80149
  0.0000    0.3158    0.6316       1.560355   -0.00000    2.65219    3.97747
  0.0000    0.3158    0.6842      24.918669   -0.00000   72.25461    9.24328
  0.0000    0.3158    0.7368     -17.503814    0.00000  -45.77936  -48.28885
  0.0000    0.3158    0.7895      11.411073   -0.00000   29.27502   37.32903
  0.0000    0.3158    0.8421       9.184465   -0.00000   21.45383  -21.45383
  0.0000    0.3158    0.8947       0.427573   -0.00000   -0.45360   -0.74678
  0.0000    0.3158    0.9474      -0.672072   -0.00000   -0.82310   -1.00724
  0.0000    0.3158    1.0000      -1.730838   -0.00000    0.69370    0.00000
  0.0000    0.3684    0.0000      -1.493951   -0.00000    0.14741   -0.00000
  0.0000    0.3684    0.0526      -1.050132   -0.00000   -0.43268    0.56706
  0.0000    0.3684    0.1053       0.067945   -0.00000   -0.76768    1.73823
  0.0000    0.3684    0.1579      24.918669   -0.00000    9.24328   72.25461
  0.0000    0.3684    0.2105      38.119972   -0.00000   21.59522 -139.08035
  0.0000    0.3684    0.2632     -30.158910    0.00000   79.45253  139.65964
  0.0000    0.3684    0.3158     350.842721   -0.00000 2318.76573 **********
  0.0000    0.3684    0.3684       3.359897   -0.00000    0.88020  -10.94627
  0.0000    0.3684    0.4211      -0.624503   -0.00000   -0.80255   -0.71375
  0.0000    0.3684    0.4737      -1.368106   -0.00000   -0.03834   -0.35695
  0.0000    0.3684    0.5263      -1.368106   -0.00000   -0.03834    0.35695
  0.0000    0.3684    0.5789      -0.624503   -0.00000   -0.80255    0.71375
  0.0000    0.3684    0.6316       3.359897   -0.00000    0.88020   10.94627
  0.0000    0.3684    0.6842     350.842721   -0.00000 2318.76573 2318.76573
  0.0000    0.3684    0.7368     -30.158910    0.00000   79.45253 -139.65964
  0.0000    0.3684    0.7895      38.119972   -0.00000   21.59522  139.08035
  0.0000    0.3684    0.8421      24.918669   -0.00000    9.24328  -72.25461
  0.0000    0.3684    0.8947       0.067945   -0.00000   -0.76768   -1.73823
  0.0000    0.3684    0.9474      -1.050132   -0.00000   -0.43268   -0.56706
  0.0000    0.3684    1.0000      -1.493951   -0.00000    0.14741    0.00000
  0.0000    0.4211    0.0000      -1.446542   -0.00000    0.02359   -0.00000
  0.0000    0.4211    0.0526      -1.297645   -0.00000   -0.30200    0.19782
  0.0000    0.4211    0.1053      -0.790844   -0.00000   -1.75119    1.03055
  0.0000    0.4211    0.1579      11.411073   -0.00000  -37.32903   29.27502
  0.0000    0.4211    0.2105      19.526064   -0.00000  -42.61680  -42.61680
  0.0000    0.4211    0.2632      -0.721798    0.00000   11.97327   17.29711
  0.0000    0.4211    0.3158      38.119972   -0.00000 -139.08035  -21.59522
  0.0000    0.4211    0.3684       1.152737   -0.00000   -7.06244   -6.17666
  0.0000    0.4211    0.4211      -1.143092   -0.00000   -0.71666   -0.28101
  0.0000    0.4211    0.4737      -1.405907   -0.00000   -0.06142   -0.11745
  0.0000    0.4211    0.5263      -1.405907   -0.00000   -0.06142    0.11745
  0.0000    0.4211    0.5789      -1.143092   -0.00000   -0.71666    0.28101
  0.0000    0.4211    0.6316       1.152737   -0.00000   -7.06244    6.17666
  0.0000    0.4211    0.6842      38.119972   -0.00000 -139.08035   21.59522
  0.0000    0.4211    0.7368      -0.721798    0.00000   11.97327  -17.29711
  0.0000    0.4211    0.7895      19.526064   -0.00000  -42.61680   42.61680
  0.0000    0.4211    0.8421      11.411073   -0.00000  -37.32903  -29.27502
  0.0000    0.4211    0.8947      -0.790844   -0.00000   -1.75119   -1.03055
  0.0000    0.4211    0.9474      -1.297645   -0.00000   -0.30200   -0.19782
  0.0000    0.4211    1.0000      -1.446542   -0.00000    0.02359    0.00000
  0.0000    0.4737    0.0000      -1.440972   -0.00000    0.00076   -0.00000
  0.0000    0.4737    0.0526      -1.441002   -0.00000   -0.11398   -0.03145
  0.0000    0.4737    0.1053      -1.892949   -0.00000   -1.11114   -1.12831
  0.0000    0.4737    0.1579     -17.503814    0.00000  -48.28885  -45.77936
  0.0000    0.4737    0.2105      -0.721798    0.00000  -17.29711   11.97327
  0.0000    0.4737    0.2632       0.954669   -0.00000   -1.21745    1.21745
  0.0000    0.4737    0.3158     -30.158910    0.00000 -139.65964  -79.45253
  0.0000    0.4737    0.3684      -3.921035    0.00000   -5.70246    6.56770
  0.0000    0.4737    0.4211      -1.513909   -0.00000   -0.32141    0.23227
  0.0000    0.4737    0.4737      -1.437453   -0.00000   -0.02651   -0.00737
  0.0000    0.4737    0.5263      -1.437453   -0.00000   -0.02651    0.00737
  0.0000    0.4737    0.5789      -1.513909   -0.00000   -0.32141   -0.23227
  0.0000    0.4737    0.6316      -3.921035    0.00000   -5.70246   -6.56770
  0.0000    0.4737    0.6842     -30.158910    0.00000 -139.65964   79.45253
  0.0000    0.4737    0.7368       0.954669   -0.00000   -1.21745   -1.21745
  0.0000    0.4737    0.7895      -0.721798    0.00000  -17.29711  -11.97327
  0.0000    0.4737    0.8421     -17.503814    0.00000  -48.28885   45.77936
  0.0000    0.4737    0.8947      -1.892949   -0.00000   -1.11114    1.12831
  0.0000    0.4737    0.9474      -1.441002   -0.00000   -0.11398    0.03145
  0.0000    0.4737    1.0000      -1.440972   -0.00000    0.00076    0.00000
  0.0000    0.5263    0.0000      -1.440972   -0.00000   -0.00076   -0.00000
  0.0000    0.5263    0.0526      -1.441002   -0.00000    0.11398   -0.03145
  0.0000    0.5263    0.1053      -1.892949   -0.00000    1.11114   -1.12831
  0.0000    0.5263    0.1579     -17.503814    0.00000   48.28885  -45.77936
  0.0000    0.5263    0.2105      -0.721798    0.00000   17.29711   11.97327
  0.0000    0.5263    0.2632       0.954669   -0.00000    1.21745    1.21745
  0.0000    0.5263    0.3158     -30.158910    0.00000  139.65964  -79.45253
  0.0000    0.5263    0.3684      -3.921035    0.00000    5.70246    6.56770
  0.0000    0.5263    0.4211      -1.513909   -0.00000    0.32141    0.23227
  0.0000    0.5263    0.4737      -1.437453   -0.00000    0.02651   -0.00737
  0.0000    0.5263    0.5263      -1.437453   -0.00000    0.02651    0.00737
  0.0000    0.5263    0.5789      -1.513909   -0.00000    0.32141   -0.23227
  0.0000    0.5263    0.6316      -3.921035    0.00000    5.70246   -6.56770
  0.0000    0.5263    0.6842     -30.158910    0.00000  139.65964   79.45253
  0.0000    0.5263    0.7368       0.954669   -0.00000    1.21745   -1.21745
  0.0000    0.5263    0.7895      -0.721798    0.00000   17.29711  -11.97327
  0.0000    0.5263    0.8421     -17.503814    0.00000   48.28885   45.77936
  0.0000    0.5263    0.8947      -1.892949   -0.00000    1.11114    1.12831
  0.0000    0.5263    0.9474      -1.441002   -0.00000    0.11398    0.03145
  0.0000    0.5263    1.0000      -1.440972   -0.00000   -0.00076    0.00000
  0.0000    0.5789    0.0000      -1.446542   -0.00000   -0.02359   -0.00000
  0.0000    0.5789    0.0526      -1.297645   -0.00000    0.30200    0.19782
  0.0000    0.5789    0.1053      -0.790844   -0.00000    1.75119    1.03055
  0.0000    0.5789    0.1579      11.411073   -0.00000   37.32903   29.27502
  0.0000    0.5789    0.2105      19.526064   -0.00000   42.61680  -42.61680
  0.0000    0.5789    0.2632      -0.721798    0.00000  -11.97327   17.29711
  0.0000    0.5789    0.3158      38.119972   -0.00000  139.08035  -21.59522
  0.0000    0.5789    0.3684       1.152737   -0.00000    7.06244   -6.17666
  0.0000    0.5789    0.4211      -1.143092   -0.00000    0.71666   -0.28101
  0.0000    0.5789    0.4737      -1.405907   -0.00000    0.06142   -0.11745
  0.0000    0.5789    0.5263      -1.405907   -0.00000    0.06142    0.11745
  0.0000    0.5789    0.5789      -1.143092   -0.00000    0.71666    0.28101
  0.0000    0.5789    0.6316       1.152737   -0.00000    7.06244    6.17666
  0.0000    0.5789    0.6842      38.119972   -0.00000  139.08035   21.59522
  0.0000    0.5789    0.7368      -0.721798    0.00000  -11.97327  -17.29711
  0.0000    0.5789    0.7895      19.526064   -0.00000   42.61680   42.61680
  0.0000    0.5789    0.8421      11.411073   -0.00000   37.32903  -29.27502
  0.0000    0.5789    0.8947      -0.790844   -0.00000    1.75119   -1.03055
  0.0000    0.5789    0.9474      -1.297645   -0.00000    0.30200   -0.19782
  0.0000    0.5789    1.0000      -1.446542   -0.00000   -0.02359    0.00000
  0.0000    0.6316    0.0000      -1.493951   -0.00000   -0.14741   -0.00000
  0.0000    0.6316    0.0526      -1.050132   -0.00000    0.43268    0.56706
  0.0000    0.6316    0.1053       0.067945   -0.00000    0.76768    1.73823
  0.0000    0.6316    0.1579      24.918669   -0.00000   -9.24328   72.25461
  0.0000    0.6316    0.2105      38.119972   -0.00000  -21.59522 -139.08035
  0.0000    0.6316    0.2632     -30.158910    0.00000  -79.45253  139.65964
  0.0000    0.6316    0.3158     350.842721   -0.00000 ********** **********
  0.0000    0.6316    0.3684       3.359897   -0.00000   -0.88020  -10.94627
  0.0000    0.6316    0.4211      -0.624503   -0.00000    0.80255   -0.71375
  0.0000    0.6316    0.4737      -1.368106   -0.00000    0.03834   -0.35695
  0.0000    0.6316    0.5263      -1.368106   -0.00000    0.03834    0.35695
  0.0000    0.6316    0.5789      -0.624503   -0.00000    0.80255    0.71375
  0.0000    0.6316    0.6316       3.359897   -0.00000   -0.88020   10.94627
  0.0000    0.6316    0.6842     350.842721   -0.00000 ********** 2318.76573
  0.0000    0.6316    0.7368     -30.158910    0.00000  -79.45253 -139.65964
  0.0000    0.6316    0.7895      38.119972   -0.00000  -21.59522  139.08035
  0.0000    0.6316    0.8421      24.918669   -0.00000   -9.24328  -72.25461
  0.0000    0.6316    0.8947       0.067945   -0.00000    0.76768   -1.73823
  0.0000    0.6316    0.9474      -1.050132   -0.00000    0.43268   -0.56706
  0.0000    0.6316    1.0000      -1.493951   -0.00000   -0.14741    0.00000
  0.0000    0.6842    0.0000      -1.730838   -0.00000   -0.69370   -0.00000
  0.0000    0.6842    0.0526      -0.672072   -0.00000    0.82310    1.00724
  0.0000    0.6842    0.1053       0.427573   -0.00000    0.45360    0.74678
  0.0000    0.6842    0.1579       9.184465   -0.00000  -21.45383   21.45383
  0.0000    0.6842    0.2105      11.411073   -0.00000  -29.27502  -37.32903
  0.0000    0.6842    0.2632     -17.503814    0.00000   45.77936   48.28885
  0.0000    0.6842    0.3158      24.918669   -0.00000  -72.25461   -9.24328
  0.0000    0.6842    0.3684       1.560355   -0.00000   -2.65219   -3.97747
  0.0000    0.6842    0.4211      -0.072822   -0.00000    0.87906   -0.80149
  0.0000    0.6842    0.4737      -1.370956   -0.00000   -0.05239   -0.95095
  0.0000    0.6842    0.5263      -1.370956   -0.00000   -0.05239    0.95095
  0.0000    0.6842    0.5789      -0.072822   -0.00000    0.87906    0.80149
  0.0000    0.6842    0.6316       1.560355   -0.00000   -2.65219    3.97747
  0.0000    0.6842    0.6842      24.918669   -0.00000  -72.25461    9.24328
  0.0000    0.6842    0.7368     -17.503814    0.00000   45.77936  -48.28885
  0.0000    0.6842    0.7895      11.411073   -0.00000  -29.27502   37.32903
  0.0000    0.6842    0.8421       9.184465   -0.00000  -21.45383  -21.45383
  0.0000    0.6842    0.8947       0.427573   -0.00000    0.45360   -0.74678
  0.0000    0.6842    0.9474      -0.672072   -0.00000    0.82310   -1.00724
  0.0000    0.6842    1.0000      -1.730838   -0.00000   -0.69370    0.00000
  0.0000    0.7368    0.0000      -2.908643    0.00000   -3.68002   -0.00000
  0.0000    0.7368    0.0526       0.652271   -0.00000    4.20295    1.84744
  0.0000    0.7368    0.1053       0.697092   -0.00000    0.40222    0.02358
  0.0000    0.7368    0.1579       1.560355   -0.00000   -3.97747    2.65219
  0.0000    0.7368    0.2105       1.152737   -0.00000   -6.17666   -7.06244
  0.0000    0.7368    0.2632      -3.921035    0.00000    6.56770    5.70246
  0.0000    0.7368    0.3158       3.359897   -0.00000  -10.94627   -0.88020
  0.0000    0.7368    0.3684       0.757522   -0.00000   -0.17887   -0.17887
  0.0000    0.7368    0.4211       0.918206   -0.00000    2.91857    0.52747
  0.0000    0.7368    0.4737      -1.429612   -0.00000   -0.11932   -3.62889
  0.0000    0.7368    0.5263      -1.429612   -0.00000   -0.11932    3.62889
  0.0000    0.7368    0.5789       0.918206   -0.00000    2.91857   -0.52747
  0.0000    0.7368    0.6316       0.757522   -0.00000   -0.17887    0.17887
  0.0000    0.7368    0.6842       3.359897   -0.00000  -10.94627    0.88020
  0.0000    0.7368    0.7368      -3.921035    0.00000    6.56770   -5.70246
  0.0000    0.7368    0.7895       1.152737   -0.00000   -6.17666    7.06244
  0.0000    0.7368    0.8421       1.560355   -0.00000   -3.97747   -2.65219
  0.0000    0.7368    0.8947       0.697092   -0.00000    0.40222   -0.02358
  0.0000    0.7368    0.9474       0.652271   -0.00000    4.20295   -1.84744
  0.0000    0.7368    1.0000      -2.908643    0.00000   -3.68002   -0.00000
  0.0000    0.7895    0.0000     -10.398580    0.00000  -26.54873   -0.00000
  0.0000    0.7895    0.0526       8.603877   -0.00000   25.30659    8.10882
  0.0000    0.7895    0.1053       1.780909   -0.00000    4.11807   -4.11807
  0.0000    0.7895    0.1579       0.427573   -0.00000   -0.74678   -0.45360
  0.0000    0.7895    0.2105      -0.790844   -0.00000   -1.03055   -1.75119
  0.0000    0.7895    0.2632      -1.892949   -0.00000    1.12831    1.11114
  0.0000    0.7895    0.3158       0.067945   -0.00000   -1.73823    0.76768
  0.0000    0.7895    0.3684       0.697092   -0.00000   -0.02358    0.40222
  0.0000    0.7895    0.4211       7.061086   -0.00000   20.38979    9.65825
  0.0000    0.7895    0.4737      -1.660412    0.00000   -0.81204  -19.01329
  0.0000    0.7895    0.5263      -1.660412    0.00000   -0.81204   19.01329
  0.0000    0.7895    0.5789       7.061086   -0.00000   20.38979   -9.65825
  0.0000    0.7895    0.6316       0.697092   -0.00000   -0.02358   -0.40222
  0.0000    0.7895    0.6842       0.067945   -0.00000   -1.73823   -0.76768
  0.0000    0.7895    0.7368      -1.892949   -0.00000    1.12831   -1.11114
  0.0000    0.7895    0.7895      -0.790844   -0.00000   -1.03055    1.75119
  0.0000    0.7895    0.8421       0.427573   -0.00000   -0.74678    0.45360
  0.0000    0.7895    0.8947       1.780909   -0.00000    4.11807    4.11807
  0.0000    0.7895    0.9474       8.603877   -0.00000   25.30659   -8.10882
  0.0000    0.7895    1.0000     -10.398580    0.00000  -26.54873   -0.00000
  0.0000    0.8421    0.0000    -158.220054    0.00000 **********   -0.00000
  0.0000    0.8421    0.0526      56.663227   -0.00000  162.08653  101.10465
  0.0000    0.8421    0.1053       7.061086   -0.00000    9.65825  -20.38979
  0.0000    0.8421    0.1579      -0.072822   -0.00000   -0.80149   -0.87906
  0.0000    0.8421    0.2105      -1.143092   -0.00000   -0.28101   -0.71666
  0.0000    0.8421    0.2632      -1.513909   -0.00000    0.23227    0.32141
  0.0000    0.8421    0.3158      -0.624503   -0.00000   -0.71375    0.80255
  0.0000    0.8421    0.3684       0.918206   -0.00000    0.52747    2.91857
  0.0000    0.8421    0.4211      40.559895   -0.00000   90.33327   90.33327
  0.0000    0.8421    0.4737      -0.953596    0.00000    8.54550  -77.23160
  0.0000    0.8421    0.5263      -0.953596    0.00000    8.54550   77.23160
  0.0000    0.8421    0.5789      40.559895   -0.00000   90.33327  -90.33327
  0.0000    0.8421    0.6316       0.918206   -0.00000    0.52747   -2.91857
  0.0000    0.8421    0.6842      -0.624503   -0.00000   -0.71375   -0.80255
  0.0000    0.8421    0.7368      -1.513909   -0.00000    0.23227   -0.32141
  0.0000    0.8421    0.7895      -1.143092   -0.00000   -0.28101    0.71666
  0.0000    0.8421    0.8421      -0.072822   -0.00000   -0.80149    0.87906
  0.0000    0.8421    0.8947       7.061086   -0.00000    9.65825   20.38979
  0.0000    0.8421    0.9474      56.663227   -0.00000  162.08653 -101.10465
  0.0000    0.8421    1.0000    -158.220054    0.00000 **********   -0.00000
  0.0000    0.8947    0.0000     -17.261560    0.00000   72.30830   -0.00000
  0.0000    0.8947    0.0526      91.855412   -0.00000 -256.74069  256.74069
  0.0000    0.8947    0.1053       8.603877   -0.00000   -8.10882  -25.30659
  0.0000    0.8947    0.1579      -0.672072   -0.00000   -1.00724   -0.82310
  0.0000    0.8947    0.2105      -1.297645   -0.00000   -0.19782   -0.30200
  0.0000    0.8947    0.2632      -1.441002   -0.00000    0.03145    0.11398
  0.0000    0.8947    0.3158      -1.050132   -0.00000   -0.56706    0.43268
  0.0000    0.8947    0.3684       0.652271   -0.00000   -1.84744    4.20295
  0.0000    0.8947    0.4211      56.663227   -0.00000 -101.10465  162.08653
  0.0000    0.8947    0.4737       8.128191   -0.00000    4.62848  -59.34501
  0.0000    0.8947    0.5263       8.128191   -0.00000    4.62848   59.34501
  0.0000    0.8947    0.5789      56.663227   -0.00000 -101.10465 -162.08653
  0.0000    0.8947    0.6316       0.652271   -0.00000   -1.84744   -4.20295
  0.0000    0.8947    0.6842      -1.050132   -0.00000   -0.56706   -0.43268
  0.0000    0.8947    0.7368      -1.441002   -0.00000    0.03145   -0.11398
  0.0000    0.8947    0.7895      -1.297645   -0.00000   -0.19782    0.30200
  0.0000    0.8947    0.8421      -0.672072   -0.00000   -1.00724    0.82310
  0.0000    0.8947    0.8947       8.603877   -0.00000   -8.10882   25.30659
  0.0000    0.8947    0.9474      91.855412   -0.00000 -256.74069 -256.74069
  0.0000    0.8947    1.0000     -17.261560    0.00000   72.30830   -0.00000
  0.0000    0.9474    0.0000      -0.028066    0.00000    4.91053   -0.00000
  0.0000    0.9474    0.0526       8.128191   -0.00000  -59.34501   -4.62848
  0.0000    0.9474    0.1053      -1.660412    0.00000  -19.01329    0.81204
  0.0000    0.9474    0.1579      -1.370956   -0.00000   -0.95095    0.05239
  0.0000    0.9474    0.2105      -1.405907   -0.00000   -0.11745   -0.06142
  0.0000    0.9474    0.2632      -1.437453   -0.00000   -0.00737    0.02651
  0.0000    0.9474    0.3158      -1.368106   -0.00000   -0.35695    0.03834
  0.0000    0.9474    0.3684      -1.429612   -0.00000   -3.62889   -0.11932
  0.0000    0.9474    0.4211      -0.953596    0.00000  -77.23160    8.54550
  0.0000    0.9474    0.4737       4.067727   -0.00000  -10.18614  -10.18614
  0.0000    0.9474    0.5263       4.067727   -0.00000  -10.18614   10.18614
  0.0000    0.9474    0.5789      -0.953596    0.00000  -77.23160   -8.54550
  0.0000    0.9474    0.6316      -1.429612   -0.00000   -3.62889    0.11932
  0.0000    0.9474    0.6842      -1.368106   -0.00000   -0.35695   -0.03834
  0.0000    0.9474    0.7368      -1.437453   -0.00000   -0.00737   -0.02651
  0.0000    0.9474    0.7895      -1.405907   -0.00000   -0.11745    0.06142
  0.0000    0.9474    0.8421      -1.370956   -0.00000   -0.95095   -0.05239
  0.0000    0.9474    0.8947      -1.660412    0.00000  -19.01329   -0.81204
  0.0000    0.9474    0.9474       8.128191   -0.00000  -59.34501    4.62848
  0.0000    0.9474    1.0000      -0.028066    0.00000    4.91053   -0.00000
  0.0000    1.0000    0.0000       0.739192   -0.00000   -0.00000   -0.00000
  0.0000    1.0000    0.0526     -17.261560    0.00000   -0.00000  -72.30830
  0.0000    1.0000    0.1053     -10.398580    0.00000   -0.00000   26.54873
  0.0000    1.0000    0.1579      -1.730838   -0.00000   -0.00000    0.69370
  0.0000    1.0000    0.2105      -1.446542   -0.00000   -0.00000    0.02359
  0.0000    1.0000    0.2632      -1.440972   -0.00000   -0.00000   -0.00076
  0.0000    1.0000    0.3158      -1.493951   -0.00000   -0.00000   -0.14741
  0.0000    1.0000    0.3684      -2.908643    0.00000   -0.00000   -3.68002
[...]
  1.0000    0.3684    0.7368     -30.158910    0.00000   79.45253 -139.65964
  1.0000    0.3684    0.7895      38.119972   -0.00000   21.59522  139.08035
  1.0000    0.3684    0.8421      24.918669   -0.00000    9.24328  -72.25461
  1.0000    0.3684    0.8947       0.067945   -0.00000   -0.76768   -1.73823
  1.0000    0.3684    0.9474      -1.050132   -0.00000   -0.43268   -0.56706
  1.0000    0.3684    1.0000      -1.493951   -0.00000    0.14741    0.00000
  1.0000    0.4211    0.0000      -1.446542   -0.00000    0.02359   -0.00000
  1.0000    0.4211    0.0526      -1.297645   -0.00000   -0.30200    0.19782
  1.0000    0.4211    0.1053      -0.790844   -0.00000   -1.75119    1.03055
  1.0000    0.4211    0.1579      11.411073   -0.00000  -37.32903   29.27502
  1.0000    0.4211    0.2105      19.526064   -0.00000  -42.61680  -42.61680
  1.0000    0.4211    0.2632      -0.721798    0.00000   11.97327   17.29711
  1.0000    0.4211    0.3158      38.119972   -0.00000 -139.08035  -21.59522
  1.0000    0.4211    0.3684       1.152737   -0.00000   -7.06244   -6.17666
  1.0000    0.4211    0.4211      -1.143092   -0.00000   -0.71666   -0.28101
  1.0000    0.4211    0.4737      -1.405907   -0.00000   -0.06142   -0.11745
  1.0000    0.4211    0.5263      -1.405907   -0.00000   -0.06142    0.11745
  1.0000    0.4211    0.5789      -1.143092   -0.00000   -0.71666    0.28101
  1.0000    0.4211    0.6316       1.152737   -0.00000   -7.06244    6.17666
  1.0000    0.4211    0.6842      38.119972   -0.00000 -139.08035   21.59522
  1.0000    0.4211    0.7368      -0.721798    0.00000   11.97327  -17.29711
  1.0000    0.4211    0.7895      19.526064   -0.00000  -42.61680   42.61680
  1.0000    0.4211    0.8421      11.411073   -0.00000  -37.32903  -29.27502
  1.0000    0.4211    0.8947      -0.790844   -0.00000   -1.75119   -1.03055
  1.0000    0.4211    0.9474      -1.297645   -0.00000   -0.30200   -0.19782
  1.0000    0.4211    1.0000      -1.446542   -0.00000    0.02359    0.00000
  1.0000    0.4737    0.0000      -1.440972   -0.00000    0.00076   -0.00000
  1.0000    0.4737    0.0526      -1.441002   -0.00000   -0.11398   -0.03145
  1.0000    0.4737    0.1053      -1.892949   -0.00000   -1.11114   -1.12831
  1.0000    0.4737    0.1579     -17.503814    0.00000  -48.28885  -45.77936
  1.0000    0.4737    0.2105      -0.721798    0.00000  -17.29711   11.97327
  1.0000    0.4737    0.2632       0.954669   -0.00000   -1.21745    1.21745
  1.0000    0.4737    0.3158     -30.158910    0.00000 -139.65964  -79.45253
  1.0000    0.4737    0.3684      -3.921035    0.00000   -5.70246    6.56770
  1.0000    0.4737    0.4211      -1.513909   -0.00000   -0.32141    0.23227
  1.0000    0.4737    0.4737      -1.437453   -0.00000   -0.02651   -0.00737
  1.0000    0.4737    0.5263      -1.437453   -0.00000   -0.02651    0.00737
  1.0000    0.4737    0.5789      -1.513909   -0.00000   -0.32141   -0.23227
  1.0000    0.4737    0.6316      -3.921035    0.00000   -5.70246   -6.56770
  1.0000    0.4737    0.6842     -30.158910    0.00000 -139.65964   79.45253
  1.0000    0.4737    0.7368       0.954669   -0.00000   -1.21745   -1.21745
  1.0000    0.4737    0.7895      -0.721798    0.00000  -17.29711  -11.97327
  1.0000    0.4737    0.8421     -17.503814    0.00000  -48.28885   45.77936
  1.0000    0.4737    0.8947      -1.892949   -0.00000   -1.11114    1.12831
  1.0000    0.4737    0.9474      -1.441002   -0.00000   -0.11398    0.03145
  1.0000    0.4737    1.0000      -1.440972   -0.00000    0.00076    0.00000
  1.0000    0.5263    0.0000      -1.440972   -0.00000   -0.00076   -0.00000
  1.0000    0.5263    0.0526      -1.441002   -0.00000    0.11398   -0.03145
  1.0000    0.5263    0.1053      -1.892949   -0.00000    1.11114   -1.12831
  1.0000    0.5263    0.1579     -17.503814    0.00000   48.28885  -45.77936
  1.0000    0.5263    0.2105      -0.721798    0.00000   17.29711   11.97327
  1.0000    0.5263    0.2632       0.954669   -0.00000    1.21745    1.21745
  1.0000    0.5263    0.3158     -30.158910    0.00000  139.65964  -79.45253
  1.0000    0.5263    0.3684      -3.921035    0.00000    5.70246    6.56770
  1.0000    0.5263    0.4211      -1.513909   -0.00000    0.32141    0.23227
  1.0000    0.5263    0.4737      -1.437453   -0.00000    0.02651   -0.00737
  1.0000    0.5263    0.5263      -1.437453   -0.00000    0.02651    0.00737
  1.0000    0.5263    0.5789      -1.513909   -0.00000    0.32141   -0.23227
  1.0000    0.5263    0.6316      -3.921035    0.00000    5.70246   -6.56770
  1.0000    0.5263    0.6842     -30.158910    0.00000  139.65964   79.45253
  1.0000    0.5263    0.7368       0.954669   -0.00000    1.21745   -1.21745
  1.0000    0.5263    0.7895      -0.721798    0.00000   17.29711  -11.97327
  1.0000    0.5263    0.8421     -17.503814    0.00000   48.28885   45.77936
  1.0000    0.5263    0.8947      -1.892949   -0.00000    1.11114    1.12831
  1.0000    0.5263    0.9474      -1.441002   -0.00000    0.11398    0.03145
  1.0000    0.5263    1.0000      -1.440972   -0.00000   -0.00076    0.00000
  1.0000    0.5789    0.0000      -1.446542   -0.00000   -0.02359   -0.00000
  1.0000    0.5789    0.0526      -1.297645   -0.00000    0.30200    0.19782
  1.0000    0.5789    0.1053      -0.790844   -0.00000    1.75119    1.03055
  1.0000    0.5789    0.1579      11.411073   -0.00000   37.32903   29.27502
  1.0000    0.5789    0.2105      19.526064   -0.00000   42.61680  -42.61680
  1.0000    0.5789    0.2632      -0.721798    0.00000  -11.97327   17.29711
  1.0000    0.5789    0.3158      38.119972   -0.00000  139.08035  -21.59522
  1.0000    0.5789    0.3684       1.152737   -0.00000    7.06244   -6.17666
  1.0000    0.5789    0.4211      -1.143092   -0.00000    0.71666   -0.28101
  1.0000    0.5789    0.4737      -1.405907   -0.00000    0.06142   -0.11745
  1.0000    0.5789    0.5263      -1.405907   -0.00000    0.06142    0.11745
  1.0000    0.5789    0.5789      -1.143092   -0.00000    0.71666    0.28101
  1.0000    0.5789    0.6316       1.152737   -0.00000    7.06244    6.17666
  1.0000    0.5789    0.6842      38.119972   -0.00000  139.08035   21.59522
  1.0000    0.5789    0.7368      -0.721798    0.00000  -11.97327  -17.29711
  1.0000    0.5789    0.7895      19.526064   -0.00000   42.61680   42.61680
  1.0000    0.5789    0.8421      11.411073   -0.00000   37.32903  -29.27502
  1.0000    0.5789    0.8947      -0.790844   -0.00000    1.75119   -1.03055
  1.0000    0.5789    0.9474      -1.297645   -0.00000    0.30200   -0.19782
  1.0000    0.5789    1.0000      -1.446542   -0.00000   -0.02359    0.00000
  1.0000    0.6316    0.0000      -1.493951   -0.00000   -0.14741   -0.00000
  1.0000    0.6316    0.0526      -1.050132   -0.00000    0.43268    0.56706
  1.0000    0.6316    0.1053       0.067945   -0.00000    0.76768    1.73823
  1.0000    0.6316    0.1579      24.918669   -0.00000   -9.24328   72.25461
  1.0000    0.6316    0.2105      38.119972   -0.00000  -21.59522 -139.08035
  1.0000    0.6316    0.2632     -30.158910    0.00000  -79.45253  139.65964
  1.0000    0.6316    0.3158     350.842721   -0.00000 ********** **********
  1.0000    0.6316    0.3684       3.359897   -0.00000   -0.88020  -10.94627
  1.0000    0.6316    0.4211      -0.624503   -0.00000    0.80255   -0.71375
  1.0000    0.6316    0.4737      -1.368106   -0.00000    0.03834   -0.35695
  1.0000    0.6316    0.5263      -1.368106   -0.00000    0.03834    0.35695
  1.0000    0.6316    0.5789      -0.624503   -0.00000    0.80255    0.71375
  1.0000    0.6316    0.6316       3.359897   -0.00000   -0.88020   10.94627
  1.0000    0.6316    0.6842     350.842721   -0.00000 ********** 2318.76573
  1.0000    0.6316    0.7368     -30.158910    0.00000  -79.45253 -139.65964
  1.0000    0.6316    0.7895      38.119972   -0.00000  -21.59522  139.08035
  1.0000    0.6316    0.8421      24.918669   -0.00000   -9.24328  -72.25461
  1.0000    0.6316    0.8947       0.067945   -0.00000    0.76768   -1.73823
  1.0000    0.6316    0.9474      -1.050132   -0.00000    0.43268   -0.56706
  1.0000    0.6316    1.0000      -1.493951   -0.00000   -0.14741    0.00000
  1.0000    0.6842    0.0000      -1.730838   -0.00000   -0.69370   -0.00000
  1.0000    0.6842    0.0526      -0.672072   -0.00000    0.82310    1.00724
  1.0000    0.6842    0.1053       0.427573   -0.00000    0.45360    0.74678
  1.0000    0.6842    0.1579       9.184465   -0.00000  -21.45383   21.45383
  1.0000    0.6842    0.2105      11.411073   -0.00000  -29.27502  -37.32903
  1.0000    0.6842    0.2632     -17.503814    0.00000   45.77936   48.28885
  1.0000    0.6842    0.3158      24.918669   -0.00000  -72.25461   -9.24328
  1.0000    0.6842    0.3684       1.560355   -0.00000   -2.65219   -3.97747
  1.0000    0.6842    0.4211      -0.072822   -0.00000    0.87906   -0.80149
  1.0000    0.6842    0.4737      -1.370956   -0.00000   -0.05239   -0.95095
  1.0000    0.6842    0.5263      -1.370956   -0.00000   -0.05239    0.95095
  1.0000    0.6842    0.5789      -0.072822   -0.00000    0.87906    0.80149
  1.0000    0.6842    0.6316       1.560355   -0.00000   -2.65219    3.97747
  1.0000    0.6842    0.6842      24.918669   -0.00000  -72.25461    9.24328
  1.0000    0.6842    0.7368     -17.503814    0.00000   45.77936  -48.28885
  1.0000    0.6842    0.7895      11.411073   -0.00000  -29.27502   37.32903
  1.0000    0.6842    0.8421       9.184465   -0.00000  -21.45383  -21.45383
  1.0000    0.6842    0.8947       0.427573   -0.00000    0.45360   -0.74678
  1.0000    0.6842    0.9474      -0.672072   -0.00000    0.82310   -1.00724
  1.0000    0.6842    1.0000      -1.730838   -0.00000   -0.69370   -0.00000
  1.0000    0.7368    0.0000      -2.908643    0.00000   -3.68002   -0.00000
  1.0000    0.7368    0.0526       0.652271   -0.00000    4.20295    1.84744
  1.0000    0.7368    0.1053       0.697092   -0.00000    0.40222    0.02358
  1.0000    0.7368    0.1579       1.560355   -0.00000   -3.97747    2.65219
  1.0000    0.7368    0.2105       1.152737   -0.00000   -6.17666   -7.06244
  1.0000    0.7368    0.2632      -3.921035    0.00000    6.56770    5.70246
  1.0000    0.7368    0.3158       3.359897   -0.00000  -10.94627   -0.88020
  1.0000    0.7368    0.3684       0.757522   -0.00000   -0.17887   -0.17887
  1.0000    0.7368    0.4211       0.918206   -0.00000    2.91857    0.52747
  1.0000    0.7368    0.4737      -1.429612   -0.00000   -0.11932   -3.62889
  1.0000    0.7368    0.5263      -1.429612   -0.00000   -0.11932    3.62889
  1.0000    0.7368    0.5789       0.918206   -0.00000    2.91857   -0.52747
  1.0000    0.7368    0.6316       0.757522   -0.00000   -0.17887    0.17887
  1.0000    0.7368    0.6842       3.359897   -0.00000  -10.94627    0.88020
  1.0000    0.7368    0.7368      -3.921035    0.00000    6.56770   -5.70246
  1.0000    0.7368    0.7895       1.152737   -0.00000   -6.17666    7.06244
  1.0000    0.7368    0.8421       1.560355   -0.00000   -3.97747   -2.65219
  1.0000    0.7368    0.8947       0.697092   -0.00000    0.40222   -0.02358
  1.0000    0.7368    0.9474       0.652271   -0.00000    4.20295   -1.84744
  1.0000    0.7368    1.0000      -2.908643    0.00000   -3.68002   -0.00000
  1.0000    0.7895    0.0000     -10.398580    0.00000  -26.54873   -0.00000
  1.0000    0.7895    0.0526       8.603877   -0.00000   25.30659    8.10882
  1.0000    0.7895    0.1053       1.780909   -0.00000    4.11807   -4.11807
  1.0000    0.7895    0.1579       0.427573   -0.00000   -0.74678   -0.45360
  1.0000    0.7895    0.2105      -0.790844   -0.00000   -1.03055   -1.75119
  1.0000    0.7895    0.2632      -1.892949   -0.00000    1.12831    1.11114
  1.0000    0.7895    0.3158       0.067945   -0.00000   -1.73823    0.76768
  1.0000    0.7895    0.3684       0.697092   -0.00000   -0.02358    0.40222
  1.0000    0.7895    0.4211       7.061086   -0.00000   20.38979    9.65825
  1.0000    0.7895    0.4737      -1.660412    0.00000   -0.81204  -19.01329
  1.0000    0.7895    0.5263      -1.660412    0.00000   -0.81204   19.01329
  1.0000    0.7895    0.5789       7.061086   -0.00000   20.38979   -9.65825
  1.0000    0.7895    0.6316       0.697092   -0.00000   -0.02358   -0.40222
  1.0000    0.7895    0.6842       0.067945   -0.00000   -1.73823   -0.76768
  1.0000    0.7895    0.7368      -1.892949   -0.00000    1.12831   -1.11114
  1.0000    0.7895    0.7895      -0.790844   -0.00000   -1.03055    1.75119
  1.0000    0.7895    0.8421       0.427573   -0.00000   -0.74678    0.45360
  1.0000    0.7895    0.8947       1.780909   -0.00000    4.11807    4.11807
  1.0000    0.7895    0.9474       8.603877   -0.00000   25.30659   -8.10882
  1.0000    0.7895    1.0000     -10.398580    0.00000  -26.54873   -0.00000
  1.0000    0.8421    0.0000    -158.220054    0.00000 **********   -0.00000
  1.0000    0.8421    0.0526      56.663227   -0.00000  162.08653  101.10465
  1.0000    0.8421    0.1053       7.061086   -0.00000    9.65825  -20.38979
  1.0000    0.8421    0.1579      -0.072822   -0.00000   -0.80149   -0.87906
  1.0000    0.8421    0.2105      -1.143092   -0.00000   -0.28101   -0.71666
  1.0000    0.8421    0.2632      -1.513909   -0.00000    0.23227    0.32141
  1.0000    0.8421    0.3158      -0.624503   -0.00000   -0.71375    0.80255
  1.0000    0.8421    0.3684       0.918206   -0.00000    0.52747    2.91857
  1.0000    0.8421    0.4211      40.559895   -0.00000   90.33327   90.33327
  1.0000    0.8421    0.4737      -0.953596    0.00000    8.54550  -77.23160
  1.0000    0.8421    0.5263      -0.953596    0.00000    8.54550   77.23160
  1.0000    0.8421    0.5789      40.559895   -0.00000   90.33327  -90.33327
  1.0000    0.8421    0.6316       0.918206   -0.00000    0.52747   -2.91857
  1.0000    0.8421    0.6842      -0.624503   -0.00000   -0.71375   -0.80255
  1.0000    0.8421    0.7368      -1.513909   -0.00000    0.23227   -0.32141
  1.0000    0.8421    0.7895      -1.143092   -0.00000   -0.28101    0.71666
  1.0000    0.8421    0.8421      -0.072822   -0.00000   -0.80149    0.87906
  1.0000    0.8421    0.8947       7.061086   -0.00000    9.65825   20.38979
  1.0000    0.8421    0.9474      56.663227   -0.00000  162.08653 -101.10465
  1.0000    0.8421    1.0000    -158.220054    0.00000 **********   -0.00000
  1.0000    0.8947    0.0000     -17.261560    0.00000   72.30830   -0.00000
  1.0000    0.8947    0.0526      91.855412   -0.00000 -256.74069  256.74069
  1.0000    0.8947    0.1053       8.603877   -0.00000   -8.10882  -25.30659
  1.0000    0.8947    0.1579      -0.672072   -0.00000   -1.00724   -0.82310
  1.0000    0.8947    0.2105      -1.297645   -0.00000   -0.19782   -0.30200
  1.0000    0.8947    0.2632      -1.441002   -0.00000    0.03145    0.11398
  1.0000    0.8947    0.3158      -1.050132   -0.00000   -0.56706    0.43268
  1.0000    0.8947    0.3684       0.652271   -0.00000   -1.84744    4.20295
  1.0000    0.8947    0.4211      56.663227   -0.00000 -101.10465  162.08653
  1.0000    0.8947    0.4737       8.128191   -0.00000    4.62848  -59.34501
  1.0000    0.8947    0.5263       8.128191   -0.00000    4.62848   59.34501
  1.0000    0.8947    0.5789      56.663227   -0.00000 -101.10465 -162.08653
  1.0000    0.8947    0.6316       0.652271   -0.00000   -1.84744   -4.20295
  1.0000    0.8947    0.6842      -1.050132   -0.00000   -0.56706   -0.43268
  1.0000    0.8947    0.7368      -1.441002   -0.00000    0.03145   -0.11398
  1.0000    0.8947    0.7895      -1.297645   -0.00000   -0.19782    0.30200
  1.0000    0.8947    0.8421      -0.672072   -0.00000   -1.00724    0.82310
  1.0000    0.8947    0.8947       8.603877   -0.00000   -8.10882   25.30659
  1.0000    0.8947    0.9474      91.855412   -0.00000 -256.74069 -256.74069
  1.0000    0.8947    1.0000     -17.261560    0.00000   72.30830   -0.00000
  1.0000    0.9474    0.0000      -0.028066    0.00000    4.91053   -0.00000
  1.0000    0.9474    0.0526       8.128191   -0.00000  -59.34501   -4.62848
  1.0000    0.9474    0.1053      -1.660412    0.00000  -19.01329    0.81204
  1.0000    0.9474    0.1579      -1.370956   -0.00000   -0.95095    0.05239
  1.0000    0.9474    0.2105      -1.405907   -0.00000   -0.11745   -0.06142
  1.0000    0.9474    0.2632      -1.437453   -0.00000   -0.00737    0.02651
  1.0000    0.9474    0.3158      -1.368106   -0.00000   -0.35695    0.03834
  1.0000    0.9474    0.3684      -1.429612   -0.00000   -3.62889   -0.11932
  1.0000    0.9474    0.4211      -0.953596    0.00000  -77.23160    8.54550
  1.0000    0.9474    0.4737       4.067727   -0.00000  -10.18614  -10.18614
  1.0000    0.9474    0.5263       4.067727   -0.00000  -10.18614   10.18614
  1.0000    0.9474    0.5789      -0.953596    0.00000  -77.23160   -8.54550
  1.0000    0.9474    0.6316      -1.429612   -0.00000   -3.62889    0.11932
  1.0000    0.9474    0.6842      -1.368106   -0.00000   -0.35695   -0.03834
  1.0000    0.9474    0.7368      -1.437453   -0.00000   -0.00737   -0.02651
  1.0000    0.9474    0.7895      -1.405907   -0.00000   -0.11745    0.06142
  1.0000    0.9474    0.8421      -1.370956   -0.00000   -0.95095   -0.05239
  1.0000    0.9474    0.8947      -1.660412    0.00000  -19.01329   -0.81204
  1.0000    0.9474    0.9474       8.128191   -0.00000  -59.34501    4.62848
  1.0000    0.9474    1.0000      -0.028066    0.00000    4.91053   -0.00000
  1.0000    1.0000    0.0000       0.739192   -0.00000   -0.00000   -0.00000
  1.0000    1.0000    0.0526     -17.261560    0.00000   -0.00000  -72.30830
  1.0000    1.0000    0.1053     -10.398580    0.00000   -0.00000   26.54873
  1.0000    1.0000    0.1579      -1.730838   -0.00000   -0.00000    0.69370
  1.0000    1.0000    0.2105      -1.446542   -0.00000   -0.00000    0.02359
  1.0000    1.0000    0.2632      -1.440972   -0.00000   -0.00000   -0.00076
  1.0000    1.0000    0.3158      -1.493951   -0.00000   -0.00000   -0.14741
  1.0000    1.0000    0.3684      -2.908643    0.00000   -0.00000   -3.68002
  1.0000    1.0000    0.4211    -158.220054    0.00000   -0.00000 **********
  1.0000    1.0000    0.4737      -0.028066    0.00000   -0.00000    4.91053
  1.0000    1.0000    0.5263      -0.028066    0.00000   -0.00000   -4.91053
  1.0000    1.0000    0.5789    -158.220054    0.00000   -0.00000 1443.34575
  1.0000    1.0000    0.6316      -2.908643    0.00000   -0.00000    3.68002
  1.0000    1.0000    0.6842      -1.493951   -0.00000   -0.00000    0.14741
  1.0000    1.0000    0.7368      -1.440972   -0.00000   -0.00000    0.00076
  1.0000    1.0000    0.7895      -1.446542   -0.00000   -0.00000   -0.02359
  1.0000    1.0000    0.8421      -1.730838   -0.00000   -0.00000   -0.69370
  1.0000    1.0000    0.8947     -10.398580    0.00000   -0.00000  -26.54873
  1.0000    1.0000    0.9474     -17.261560    0.00000   -0.00000   72.30830
  1.0000    1.0000    1.0000       0.739192   -0.00000   -0.00000    0.00000
-------------------------------------------------------------------------------

  Total time to end of potential grid =      11.9922


  Peak dynamic memory used =       0.90 MB 


  Timing analysis for GULP :

--------------------------------------------------------------------------------
  Task / Subroutine                                          Time (Seconds)
--------------------------------------------------------------------------------
  Calculation of reciprocal space energy and derivatives         11.9770
  Calculation of real space energy and derivatives                0.0345
--------------------------------------------------------------------------------
  Total CPU time                                                 11.9877
--------------------------------------------------------------------------------


  CIF file written as sod.cif                                                 


  Job Finished at 11:18.02 26th July       2018                               

